<?xml version="1.0"?>
<VTKFile type="UnstructuredGrid" version="0.1" byte_order="LittleEndian" compressor="vtkZLibDataCompressor">
  <UnstructuredGrid>
    <Piece NumberOfPoints="11362" NumberOfCells="22720">
      <Points>
        <DataArray type="Float32" NumberOfComponents="3" format="ascii">
          -5.544e+01 -3.072e+02 -1.678e+03
          -6.760e+01 -3.685e+02 -1.668e+03
          -1.165e+02 -3.459e+02 -1.669e+03
          1.015e+01 -2.991e+02 -1.677e+03
          -1.173e+01 -3.589e+02 -1.668e+03
          7.390e+01 -2.982e+02 -1.678e+03
          4.754e+01 -3.563e+02 -1.668e+03
          1.085e+02 -3.558e+02 -1.666e+03
          -1.803e+02 -2.600e+02 -1.677e+03
          -1.750e+02 -3.240e+02 -1.667e+03
          -2.329e+02 -2.978e+02 -1.664e+03
          -1.259e+02 -2.218e+02 -1.687e+03
          -1.221e+02 -2.872e+02 -1.678e+03
          -7.472e+01 -2.501e+02 -1.686e+03
          -1.854e+01 -2.425e+02 -1.688e+03
          4.140e+01 -2.385e+02 -1.685e+03
          1.039e+02 -2.416e+02 -1.684e+03
          1.382e+02 -3.002e+02 -1.673e+03
          1.667e+02 -2.472e+02 -1.679e+03
          2.058e+02 -2.984e+02 -1.666e+03
          2.343e+02 -2.439e+02 -1.672e+03
          -2.397e+02 -1.693e+02 -1.679e+03
          -2.390e+02 -2.336e+02 -1.673e+03
          -2.961e+02 -2.045e+02 -1.667e+03
          -1.825e+02 -1.961e+02 -1.682e+03
          -1.211e+02 -1.623e+02 -1.693e+03
          -6.079e+01 -1.887e+02 -1.694e+03
          5.474e+00 -1.791e+02 -1.696e+03
          7.197e+01 -1.812e+02 -1.695e+03
          1.349e+02 -1.861e+02 -1.690e+03
          1.961e+02 -1.970e+02 -1.683e+03
          2.508e+02 -1.760e+02 -1.677e+03
          2.916e+02 -2.356e+02 -1.662e+03
          3.100e+02 -1.829e+02 -1.666e+03
          -2.381e+02 -1.052e+02 -1.686e+03
          -2.948e+02 -1.387e+02 -1.676e+03
          -1.814e+02 -1.339e+02 -1.689e+03
          -1.249e+02 -1.016e+02 -1.696e+03
          -6.223e+01 -1.244e+02 -1.697e+03
          -2.002e-01 -1.148e+02 -1.699e+03
          6.157e+01 -1.199e+02 -1.700e+03
          1.230e+02 -1.243e+02 -1.698e+03
          1.863e+02 -1.406e+02 -1.690e+03
          2.398e+02 -1.111e+02 -1.682e+03
          3.009e+02 -1.277e+02 -1.670e+03
          -2.376e+02 -3.823e+01 -1.688e+03
          -2.917e+02 -7.441e+01 -1.678e+03
          -1.848e+02 -6.830e+01 -1.693e+03
          -1.339e+02 -4.011e+01 -1.700e+03
          -7.497e+01 -5.825e+01 -1.700e+03
          -1.593e+01 -5.447e+01 -1.704e+03
          4.601e+01 -5.888e+01 -1.704e+03
          1.111e+02 -6.050e+01 -1.699e+03
          1.756e+02 -7.977e+01 -1.694e+03
          2.366e+02 -5.094e+01 -1.684e+03
          2.974e+02 -7.091e+01 -1.671e+03
          -2.989e+02 -1.025e+01 -1.679e+03
          -3.493e+02 -5.156e+01 -1.668e+03
          -3.618e+02 -2.185e-01 -1.667e+03
          -2.471e+02 2.179e+01 -1.688e+03
          -1.815e+02 3.667e+00 -1.695e+03
          -1.110e+02 1.085e+01 -1.702e+03
          -4.891e+01 4.223e+00 -1.703e+03
          1.442e+01 3.819e+00 -1.705e+03
          7.488e+01 3.449e-01 -1.701e+03
          1.330e+02 6.086e-01 -1.694e+03
          1.845e+02 -1.821e+01 -1.691e+03
          2.362e+02 1.527e+01 -1.686e+03
          2.906e+02 -1.553e+01 -1.673e+03
          -3.146e+02 5.237e+01 -1.676e+03
          -3.755e+02 5.179e+01 -1.665e+03
          -2.640e+02 7.898e+01 -1.683e+03
          -2.028e+02 6.717e+01 -1.694e+03
          -1.419e+02 6.370e+01 -1.699e+03
          -7.576e+01 6.580e+01 -1.700e+03
          -1.353e+01 6.395e+01 -1.700e+03
          4.905e+01 6.289e+01 -1.700e+03
          1.115e+02 5.974e+01 -1.696e+03
          1.778e+02 5.047e+01 -1.689e+03
          2.443e+02 7.403e+01 -1.684e+03
          3.009e+02 9.508e+01 -1.676e+03
          3.001e+02 3.815e+01 -1.674e+03
          3.587e+02 3.993e+01 -1.665e+03
          -3.586e+02 1.045e+02 -1.666e+03
          -3.002e+02 1.264e+02 -1.673e+03
          -2.319e+02 1.289e+02 -1.684e+03
          -1.700e+02 1.227e+02 -1.693e+03
          -1.052e+02 1.219e+02 -1.697e+03
          -4.100e+01 1.247e+02 -1.697e+03
          2.098e+01 1.242e+02 -1.697e+03
          8.297e+01 1.216e+02 -1.694e+03
          1.430e+02 1.139e+02 -1.687e+03
          1.997e+02 1.096e+02 -1.681e+03
          2.513e+02 1.434e+02 -1.678e+03
          3.168e+02 1.475e+02 -1.667e+03
          3.629e+02 1.018e+02 -1.662e+03
          -2.569e+02 1.846e+02 -1.676e+03
          -3.110e+02 1.870e+02 -1.668e+03
          -1.960e+02 1.843e+02 -1.683e+03
          -1.359e+02 1.763e+02 -1.688e+03
          -6.956e+01 1.818e+02 -1.692e+03
          -4.927e+00 1.850e+02 -1.691e+03
          5.963e+01 1.821e+02 -1.695e+03
          1.238e+02 1.776e+02 -1.689e+03
          1.854e+02 1.688e+02 -1.682e+03
          2.319e+02 2.078e+02 -1.674e+03
          2.915e+02 1.944e+02 -1.664e+03
          -2.898e+02 2.451e+02 -1.666e+03
          -2.282e+02 2.428e+02 -1.675e+03
          -1.676e+02 2.417e+02 -1.679e+03
          -1.155e+02 2.297e+02 -1.684e+03
          -6.762e+01 2.476e+02 -1.684e+03
          -1.457e+01 2.463e+02 -1.683e+03
          4.200e+01 2.415e+02 -1.684e+03
          1.033e+02 2.370e+02 -1.683e+03
          1.686e+02 2.325e+02 -1.679e+03
          2.316e+02 2.673e+02 -1.666e+03
          -1.894e+02 2.975e+02 -1.667e+03
          -1.201e+02 2.938e+02 -1.671e+03
          -5.343e+01 3.047e+02 -1.674e+03
          1.061e+01 3.032e+02 -1.674e+03
          7.165e+01 2.989e+02 -1.674e+03
          1.301e+02 2.936e+02 -1.672e+03
          1.842e+02 2.932e+02 -1.668e+03
          -1.672e+02 -5.247e+02 -1.614e+03
          -2.023e+02 -5.710e+02 -1.594e+03
          -2.369e+02 -5.244e+02 -1.606e+03
          -1.093e+02 -5.214e+02 -1.621e+03
          -1.386e+02 -5.780e+02 -1.600e+03
          -4.705e+01 -5.251e+02 -1.621e+03
          -7.860e+01 -5.783e+02 -1.604e+03
          1.617e+01 -5.253e+02 -1.624e+03
          -1.594e+01 -5.777e+02 -1.602e+03
          7.814e+01 -5.223e+02 -1.623e+03
          4.653e+01 -5.773e+02 -1.605e+03
          1.403e+02 -5.196e+02 -1.620e+03
          1.080e+02 -5.737e+02 -1.603e+03
          1.699e+02 -5.701e+02 -1.596e+03
          -2.555e+02 -4.625e+02 -1.623e+03
          -2.951e+02 -5.056e+02 -1.603e+03
          -3.155e+02 -4.480e+02 -1.616e+03
          -1.992e+02 -4.809e+02 -1.625e+03
          -1.435e+02 -4.616e+02 -1.636e+03
          -7.891e+01 -4.703e+02 -1.638e+03
          -1.413e+01 -4.725e+02 -1.638e+03
          4.817e+01 -4.695e+02 -1.641e+03
          1.109e+02 -4.666e+02 -1.638e+03
          1.744e+02 -4.645e+02 -1.634e+03
          2.016e+02 -5.166e+02 -1.613e+03
          2.381e+02 -4.614e+02 -1.624e+03
          2.617e+02 -5.111e+02 -1.606e+03
          3.172e+02 -5.123e+02 -1.596e+03
          -3.816e+02 -3.641e+02 -1.620e+03
          -4.233e+02 -4.566e+02 -1.589e+03
          -4.317e+02 -3.979e+02 -1.600e+03
          -3.230e+02 -3.862e+02 -1.628e+03
          -3.728e+02 -4.258e+02 -1.610e+03
          -2.655e+02 -4.037e+02 -1.635e+03
          -2.032e+02 -4.245e+02 -1.639e+03
          -1.072e+02 -4.148e+02 -1.655e+03
          -4.252e+01 -4.202e+02 -1.654e+03
          1.795e+01 -4.151e+02 -1.655e+03
          7.930e+01 -4.128e+02 -1.654e+03
          1.417e+02 -4.109e+02 -1.651e+03
          2.042e+02 -4.089e+02 -1.644e+03
          2.656e+02 -4.098e+02 -1.632e+03
          3.276e+02 -3.987e+02 -1.623e+03
          3.073e+02 -4.573e+02 -1.614e+03
          3.815e+02 -3.728e+02 -1.618e+03
          3.736e+02 -4.356e+02 -1.603e+03
          4.308e+02 -4.111e+02 -1.597e+03
          -3.985e+02 -3.032e+02 -1.631e+03
          -4.407e+02 -3.392e+02 -1.613e+03
          -3.353e+02 -3.251e+02 -1.639e+03
          -2.779e+02 -3.386e+02 -1.645e+03
          -2.203e+02 -3.627e+02 -1.651e+03
          -1.601e+02 -3.887e+02 -1.653e+03
          1.712e+02 -3.545e+02 -1.662e+03
          2.325e+02 -3.524e+02 -1.654e+03
          2.876e+02 -3.553e+02 -1.643e+03
          3.358e+02 -3.312e+02 -1.636e+03
          3.920e+02 -3.082e+02 -1.628e+03
          4.358e+02 -3.502e+02 -1.610e+03
          -4.586e+02 -2.744e+02 -1.621e+03
          -4.946e+02 -3.207e+02 -1.601e+03
          -5.247e+02 -2.770e+02 -1.600e+03
          -4.085e+02 -2.420e+02 -1.638e+03
          -3.492e+02 -2.697e+02 -1.646e+03
          -2.915e+02 -2.723e+02 -1.660e+03
          2.744e+02 -2.963e+02 -1.654e+03
          3.393e+02 -2.721e+02 -1.643e+03
          4.048e+02 -2.463e+02 -1.635e+03
          4.484e+02 -2.823e+02 -1.619e+03
          4.854e+02 -3.257e+02 -1.603e+03
          5.095e+02 -2.715e+02 -1.607e+03
          -4.581e+02 -2.068e+02 -1.626e+03
          -5.068e+02 -2.306e+02 -1.610e+03
          -4.083e+02 -1.778e+02 -1.646e+03
          -3.536e+02 -2.160e+02 -1.653e+03
          3.577e+02 -2.144e+02 -1.652e+03
          4.157e+02 -1.853e+02 -1.642e+03
          4.684e+02 -2.206e+02 -1.620e+03
          5.155e+02 -1.799e+02 -1.611e+03
          5.448e+02 -2.297e+02 -1.601e+03
          5.823e+02 -1.864e+02 -1.594e+03
          -5.204e+02 -1.130e+02 -1.620e+03
          -5.168e+02 -1.741e+02 -1.614e+03
          -5.702e+02 -1.509e+02 -1.599e+03
          -4.640e+02 -1.446e+02 -1.633e+03
          -4.097e+02 -1.157e+02 -1.653e+03
          -3.520e+02 -1.601e+02 -1.663e+03
          3.632e+02 -1.508e+02 -1.659e+03
          4.138e+02 -1.185e+02 -1.647e+03
          4.642e+02 -1.519e+02 -1.627e+03
          5.130e+02 -1.134e+02 -1.616e+03
          5.625e+02 -1.383e+02 -1.602e+03
          -5.247e+02 -5.133e+01 -1.620e+03
          -5.753e+02 -8.478e+01 -1.602e+03
          -4.665e+02 -8.272e+01 -1.639e+03
          -4.112e+02 -5.169e+01 -1.656e+03
          -3.515e+02 -1.041e+02 -1.666e+03
          3.563e+02 -8.842e+01 -1.660e+03
          4.093e+02 -5.402e+01 -1.649e+03
          4.640e+02 -8.420e+01 -1.633e+03
          5.212e+02 -5.177e+01 -1.618e+03
          5.726e+02 -8.244e+01 -1.601e+03
          -5.273e+02 1.127e+01 -1.618e+03
          -5.798e+02 -1.933e+01 -1.601e+03
          -4.726e+02 -2.204e+01 -1.639e+03
[...]
      <PointData Scalars="deep (km)">
        <DataArray type="Float32" Name="deep (km)" NumberOfComponents="1" format="ascii">
          -2.994e+01
          -2.786e+01
          -2.903e+01
          -3.330e+01
          -3.120e+01
          -3.162e+01
          -3.038e+01
          -3.059e+01
          -3.105e+01
          -3.040e+01
          -3.066e+01
          -3.115e+01
          -3.052e+01
          -3.058e+01
          -3.169e+01
          -3.476e+01
          -3.267e+01
          -3.144e+01
          -3.221e+01
          -3.179e+01
          -3.158e+01
          -3.295e+01
          -3.116e+01
          -3.149e+01
          -3.352e+01
          -3.199e+01
          -3.118e+01
          -3.147e+01
          -3.103e+01
          -3.151e+01
          -3.141e+01
          -3.269e+01
          -3.334e+01
          -3.266e+01
          -3.158e+01
          -3.020e+01
          -3.329e+01
          -3.313e+01
          -3.468e+01
          -3.401e+01
          -3.218e+01
          -3.033e+01
          -3.118e+01
          -3.454e+01
          -3.510e+01
          -3.237e+01
          -3.269e+01
          -3.318e+01
          -3.161e+01
          -3.429e+01
          -3.208e+01
          -3.113e+01
          -3.310e+01
          -3.177e+01
          -3.541e+01
          -3.825e+01
          -3.161e+01
          -3.213e+01
          -3.103e+01
          -3.125e+01
          -3.258e+01
          -3.143e+01
          -3.357e+01
          -3.214e+01
          -3.463e+01
          -3.802e+01
          -3.588e+01
          -3.499e+01
          -3.919e+01
          -3.115e+01
          -2.973e+01
          -3.170e+01
          -3.021e+01
          -3.065e+01
          -3.430e+01
          -3.542e+01
          -3.510e+01
          -3.684e+01
          -3.758e+01
          -3.432e+01
          -3.178e+01
          -3.590e+01
          -3.364e+01
          -3.019e+01
          -3.258e+01
          -3.269e+01
          -3.169e+01
          -3.280e+01
          -3.539e+01
          -3.507e+01
          -3.629e+01
          -4.075e+01
          -4.054e+01
          -3.462e+01
          -3.411e+01
          -3.296e+01
          -3.155e+01
          -3.018e+01
          -3.281e+01
          -3.432e+01
          -3.403e+01
          -3.560e+01
          -3.178e+01
          -3.450e+01
          -3.665e+01
          -3.471e+01
          -3.673e+01
          -2.856e+01
          -2.966e+01
          -3.271e+01
          -3.380e+01
          -3.406e+01
          -3.578e+01
          -3.530e+01
          -3.419e+01
          -3.355e+01
          -3.408e+01
          -3.348e+01
          -3.584e+01
          -3.466e+01
          -3.623e+01
          -3.471e+01
          -3.476e+01
          -3.322e+01
          -3.148e+01
          -3.175e+01
          -3.098e+01
          -3.103e+01
          -2.991e+01
          -3.255e+01
          -3.062e+01
          -3.057e+01
          -3.386e+01
          -3.011e+01
          -3.090e+01
          -2.981e+01
          -3.112e+01
          -3.386e+01
          -3.052e+01
          -3.034e+01
          -3.112e+01
          -3.108e+01
          -3.158e+01
          -3.151e+01
          -3.204e+01
          -2.989e+01
          -3.064e+01
          -2.968e+01
          -3.133e+01
          -3.248e+01
          -3.178e+01
          -3.136e+01
          -3.343e+01
          -3.082e+01
          -3.254e+01
          -3.338e+01
          -3.101e+01
          -3.255e+01
          -3.227e+01
          -2.803e+01
          -3.047e+01
          -3.060e+01
          -3.041e+01
          -3.017e+01
          -3.056e+01
          -3.358e+01
          -3.383e+01
          -3.163e+01
          -3.355e+01
          -3.433e+01
          -3.291e+01
          -3.111e+01
          -3.096e+01
          -3.268e+01
          -3.479e+01
          -3.262e+01
          -3.158e+01
          -2.957e+01
          -3.057e+01
          -3.211e+01
          -3.464e+01
          -3.469e+01
          -3.244e+01
          -3.012e+01
          -3.078e+01
          -3.093e+01
          -3.181e+01
          -3.293e+01
          -3.030e+01
          -3.494e+01
          -3.752e+01
          -3.493e+01
          -3.380e+01
          -3.089e+01
          -2.971e+01
          -3.540e+01
          -3.326e+01
          -3.200e+01
          -3.270e+01
          -3.340e+01
          -3.357e+01
          -3.618e+01
          -3.656e+01
          -3.085e+01
          -2.968e+01
          -3.229e+01
          -3.336e+01
          -3.300e+01
          -3.327e+01
          -3.006e+01
          -3.020e+01
          -3.189e+01
          -3.486e+01
          -3.830e+01
          -3.818e+01
          -3.319e+01
          -3.310e+01
          -3.257e+01
          -3.085e+01
          -2.979e+01
          -3.154e+01
          -3.701e+01
          -3.755e+01
          -3.736e+01
          -3.641e+01
          -3.456e+01
          -3.493e+01
          -3.445e+01
          -3.123e+01
          -3.214e+01
          -4.073e+01
          -3.576e+01
          -3.773e+01
          -3.566e+01
          -3.758e+01
          -3.257e+01
          -3.211e+01
          -3.584e+01
          -3.361e+01
          -3.444e+01
          -3.468e+01
          -3.656e+01
          -3.973e+01
          -3.030e+01
          -2.902e+01
          -3.572e+01
          -3.254e+01
          -3.111e+01
          -3.607e+01
          -3.623e+01
          -3.516e+01
          -3.703e+01
          -3.852e+01
          -3.044e+01
          -2.754e+01
          -3.378e+01
          -3.214e+01
          -2.948e+01
          -3.649e+01
          -3.482e+01
          -3.359e+01
          -3.266e+01
          -3.376e+01
          -3.632e+01
          -3.125e+01
          -3.053e+01
          -3.237e+01
          -3.435e+01
          -2.868e+01
          -3.258e+01
          -3.467e+01
          -3.441e+01
          -3.472e+01
          -3.151e+01
          -3.310e+01
          -3.352e+01
          -2.898e+01
          -3.036e+01
          -2.641e+01
          -3.211e+01
          -3.360e+01
          -3.430e+01
          -3.420e+01
          -3.376e+01
          -3.385e+01
          -3.433e+01
          -3.383e+01
          -3.290e+01
          -3.492e+01
          -3.461e+01
          -3.608e+01
          -3.609e+01
          -2.819e+01
          -2.869e+01
          -3.075e+01
          -3.143e+01
          -3.406e+01
          -3.609e+01
          -3.576e+01
          -3.633e+01
          -3.663e+01
          -3.443e+01
          -3.470e+01
          -3.552e+01
          -3.371e+01
          -3.542e+01
          -3.465e+01
          -3.629e+01
          -3.284e+01
          -3.168e+01
          -3.334e+01
          -3.028e+01
          -3.323e+01
          -3.498e+01
          -3.689e+01
          -3.859e+01
          -3.469e+01
          -3.335e+01
          -3.481e+01
          -3.705e+01
          -3.621e+01
          -3.629e+01
          -3.334e+01
          -3.284e+01
          -3.566e+01
          -3.586e+01
          -3.578e+01
          -3.427e+01
          -3.309e+01
          -3.382e+01
          -3.321e+01
          -3.169e+01
          -3.470e+01
          -3.703e+01
          -3.484e+01
          -3.225e+01
          -3.369e+01
          -3.406e+01
          -3.360e+01
          -2.830e+01
          -3.003e+01
          -2.995e+01
          -2.840e+01
          -3.214e+01
          -2.929e+01
          -3.824e+01
          -3.213e+01
          -3.389e+01
          -2.724e+01
          -2.871e+01
          -2.556e+01
          -2.685e+01
          -2.791e+01
          -2.767e+01
          -2.912e+01
          -2.571e+01
          -3.121e+01
          -2.787e+01
          -3.203e+01
          -3.042e+01
          -3.134e+01
          -3.244e+01
          -3.088e+01
          -3.053e+01
          -2.961e+01
          -2.988e+01
          -2.870e+01
          -3.099e+01
          -2.863e+01
          -2.937e+01
          -3.172e+01
          -3.409e+01
          -3.455e+01
          -3.163e+01
          -3.289e+01
          -3.079e+01
          -3.115e+01
          -2.948e+01
          -3.090e+01
          -3.266e+01
          -2.951e+01
          -3.098e+01
          -3.093e+01
          -3.062e+01
          -3.575e+01
          -3.387e+01
          -3.302e+01
          -3.224e+01
          -3.118e+01
          -3.044e+01
          -3.335e+01
          -3.170e+01
          -2.909e+01
          -3.058e+01
          -3.053e+01
          -2.931e+01
          -3.192e+01
          -3.387e+01
          -3.227e+01
          -3.449e+01
          -3.389e+01
          -3.589e+01
          -3.443e+01
          -3.350e+01
          -3.228e+01
          -3.173e+01
          -3.485e+01
          -3.367e+01
          -3.316e+01
          -3.486e+01
          -3.560e+01
          -3.035e+01
          -3.187e+01
          -3.210e+01
          -3.333e+01
          -3.190e+01
          -3.224e+01
          -3.705e+01
          -3.862e+01
          -3.795e+01
          -3.318e+01
          -3.334e+01
          -3.609e+01
          -3.043e+01
          -3.059e+01
          -3.239e+01
          -3.459e+01
          -3.647e+01
          -3.201e+01
          -3.494e+01
          -3.260e+01
          -3.268e+01
          -3.432e+01
          -3.724e+01
          -3.582e+01
          -4.039e+01
          -3.255e+01
          -3.242e+01
          -3.227e+01
          -3.073e+01
          -3.527e+01
          -3.893e+01
          -3.251e+01
          -3.313e+01
          -3.388e+01
          -3.406e+01
          -3.363e+01
          -3.845e+01
          -3.428e+01
          -3.425e+01
          -3.388e+01
          -3.763e+01
          -3.315e+01
          -3.851e+01
          -3.187e+01
          -3.321e+01
          -3.063e+01
          -3.904e+01
          -3.518e+01
          -3.364e+01
          -3.059e+01
          -3.357e+01
          -2.933e+01
          -3.567e+01
          -3.817e+01
          -3.465e+01
          -2.393e+01
          -3.099e+01
          -2.487e+01
          -3.603e+01
          -3.601e+01
          -3.959e+01
          -4.260e+01
          -2.170e+01
          -2.345e+01
          -2.511e+01
          -2.985e+01
          -3.855e+01
          -3.918e+01
          -4.060e+01
          -4.100e+01
          -2.653e+01
          -2.270e+01
          -2.351e+01
          -2.866e+01
          -3.763e+01
          -3.779e+01
          -3.810e+01
          -4.080e+01
          -2.510e+01
          -2.355e+01
          -2.941e+01
          -2.823e+01
          -3.707e+01
          -3.703e+01
          -3.929e+01
          -4.058e+01
          -4.011e+01
          -3.011e+01
          -3.335e+01
          -2.975e+01
          -2.795e+01
          -3.098e+01
          -3.415e+01
          -3.756e+01
          -3.906e+01
          -3.870e+01
          -3.807e+01
          -4.042e+01
          -3.233e+01
          -3.160e+01
          -3.103e+01
          -3.235e+01
          -3.235e+01
          -3.334e+01
          -3.590e+01
          -3.362e+01
          -3.871e+01
          -3.979e+01
          -3.694e+01
          -3.831e+01
          -3.202e+01
          -2.993e+01
          -3.155e+01
          -3.281e+01
          -3.290e+01
          -3.516e+01
          -3.342e+01
          -3.340e+01
          -3.612e+01
          -3.391e+01
          -3.315e+01
          -3.440e+01
          -3.522e+01
          -3.815e+01
          -3.895e+01
          -4.045e+01
          -3.780e+01
          -3.443e+01
          -3.684e+01
          -3.402e+01
          -3.155e+01
          -3.355e+01
          -3.424e+01
          -3.250e+01
          -3.668e+01
          -3.583e+01
          -3.283e+01
          -3.404e+01
          -3.411e+01
          -3.649e+01
          -3.766e+01
          -3.000e+01
          -3.071e+01
          -3.418e+01
          -3.313e+01
          -3.591e+01
          -3.394e+01
          -3.451e+01
          -3.503e+01
          -8.274e+00
          -9.259e+00
          -8.246e+00
          -9.739e+00
          -9.073e+00
          -1.417e+01
          -1.532e+01
          -2.631e+01
          -1.600e+01
          -1.267e+01
          -2.901e+01
          -1.589e+01
          -2.069e+01
          -2.190e+01
          -2.658e+01
          -2.849e+01
          -2.637e+01
          -2.530e+01
          -2.301e+01
          -2.464e+01
          -2.223e+01
          -2.524e+01
          -2.603e+01
          -3.173e+01
          -3.086e+01
          -3.055e+01
          -3.316e+01
          -3.392e+01
          -3.373e+01
          -3.581e+01
          -3.166e+01
          -3.477e+01
          -3.670e+01
          -2.837e+01
          -2.765e+01
          -2.741e+01
          -2.243e+01
          -2.528e+01
          -3.108e+01
          -2.922e+01
          -3.007e+01
          -3.091e+01
          -2.948e+01
          -3.307e+01
          -3.160e+01
          -3.431e+01
          -3.259e+01
          -3.237e+01
          -3.202e+01
          -3.098e+01
          -3.152e+01
          -2.943e+01
          -2.939e+01
          -2.986e+01
          -2.938e+01
          -3.204e+01
          -2.961e+01
          -3.258e+01
          -3.296e+01
          -3.229e+01
          -3.230e+01
          -3.355e+01
          -3.452e+01
          -2.930e+01
          -3.222e+01
          -3.010e+01
          -3.388e+01
          -3.523e+01
          -3.468e+01
          -3.647e+01
          -3.299e+01
          -3.079e+01
          -2.945e+01
          -3.117e+01
          -3.503e+01
          -3.509e+01
          -3.456e+01
          -3.599e+01
          -2.979e+01
          -2.808e+01
          -2.928e+01
          -2.827e+01
          -3.587e+01
          -3.679e+01
          -3.674e+01
          -3.179e+01
          -3.056e+01
          -3.072e+01
          -3.586e+01
          -3.720e+01
          -3.658e+01
          -4.010e+01
          -3.418e+01
          -2.964e+01
          -2.868e+01
          -3.362e+01
          -3.513e+01
          -3.888e+01
          -4.039e+01
          -3.329e+01
          -3.556e+01
          -3.639e+01
          -4.028e+01
          -3.697e+01
          -4.193e+01
          -4.091e+01
          -3.423e+01
          -3.613e+01
          -3.226e+01
          -3.875e+01
          -3.729e+01
          -3.547e+01
          -3.168e+01
          -3.251e+01
          -3.463e+01
          -3.877e+01
          -3.673e+01
          -3.630e+01
          -1.850e+01
          -2.170e+01
          -2.073e+01
          -2.994e+01
          -3.174e+01
          -4.019e+01
          -3.930e+01
          -3.876e+01
          -2.118e+01
          -1.869e+01
          -2.365e+01
          -3.294e+01
          -3.546e+01
          -4.104e+01
          -4.082e+01
          -2.637e+01
          -2.415e+01
          -3.181e+01
          -3.608e+01
          -3.783e+01
          -4.315e+01
          -2.387e+01
          -2.613e+01
          -2.642e+01
          -3.939e+01
          -3.522e+01
          -3.909e+01
          -2.497e+01
          -2.737e+01
          -2.571e+01
          -3.982e+01
          -4.122e+01
          -3.972e+01
          -3.890e+01
          -2.650e+01
          -2.700e+01
          -2.986e+01
          -2.526e+01
          -4.341e+01
          -3.981e+01
          -4.258e+01
          -2.488e+01
          -2.729e+01
          -2.542e+01
          -4.089e+01
          -4.568e+01
          -4.386e+01
          -4.463e+01
          -2.657e+01
          -2.653e+01
          -2.518e+01
          -2.925e+01
          -4.098e+01
          -4.308e+01
          -4.316e+01
          -3.729e+01
          -2.444e+01
          -2.666e+01
          -3.002e+01
          -3.550e+01
          -3.991e+01
          -4.448e+01
          -4.408e+01
          -3.529e+01
          -2.668e+01
          -2.722e+01
          -3.054e+01
          -3.304e+01
          -3.246e+01
          -3.888e+01
          -3.972e+01
          -3.988e+01
          -3.881e+01
          -4.106e+01
          -3.051e+01
          -3.358e+01
          -3.616e+01
          -3.388e+01
          -3.458e+01
          -3.530e+01
          -3.588e+01
          -3.715e+01
          -3.853e+01
          -3.989e+01
          -4.511e+01
          -4.334e+01
          -3.740e+01
          -3.286e+01
          -3.029e+01
          -3.002e+01
          -2.809e+01
          -3.098e+01
          -3.488e+01
          -3.385e+01
          -3.542e+01
          -3.587e+01
          -3.542e+01
          -3.695e+01
          -3.590e+01
          -3.602e+01
          -3.825e+01
          -3.948e+01
          -4.448e+01
          -3.032e+01
          -2.939e+01
          -3.117e+01
          -3.148e+01
          -3.236e+01
          -3.342e+01
          -3.468e+01
          -3.640e+01
          -3.765e+01
          -3.674e+01
          -3.687e+01
          -3.907e+01
          -3.722e+01
          -3.679e+01
          -3.165e+01
          -2.950e+01
          -3.177e+01
          -3.321e+01
          -3.645e+01
          -3.849e+01
          -3.442e+01
          -3.827e+01
          -8.999e+00
          -2.718e+01
          -2.854e+01
          -7.798e+00
          -1.272e+01
          -9.052e+00
          -1.526e+01
          -2.659e+01
          -2.796e+01
          -3.156e+01
          -3.465e+01
          -2.820e+01
          -3.063e+01
          -3.017e+01
          -3.580e+01
          -3.580e+01
          -3.334e+01
          -2.553e+01
          -3.370e+01
          -1.427e+01
          -3.066e+01
          -2.849e+01
          -2.772e+01
          -3.051e+01
          -2.899e+01
          -3.162e+01
          -2.943e+01
          -2.997e+01
          -2.944e+01
          -2.987e+01
          -3.135e+01
          -3.385e+01
          -3.020e+01
          -3.021e+01
          -3.504e+01
          -3.656e+01
          -3.177e+01
          -3.164e+01
          -3.021e+01
          -2.981e+01
          -3.070e+01
          -3.007e+01
          -3.365e+01
          -3.456e+01
          -3.256e+01
          -3.133e+01
          -2.809e+01
          -2.928e+01
          -3.113e+01
          -3.227e+01
          -2.975e+01
          -3.057e+01
          -3.052e+01
          -2.986e+01
          -3.151e+01
          -3.161e+01
          -3.110e+01
          -3.326e+01
          -3.330e+01
          -3.524e+01
          -2.714e+01
          -2.456e+01
          -1.734e+01
          -3.204e+01
          -3.509e+01
          -3.759e+01
          -3.767e+01
          -3.726e+01
          -1.756e+01
          -1.895e+01
          -1.675e+01
          -2.710e+01
          -3.240e+01
          -3.525e+01
          -3.513e+01
          -3.415e+01
          -3.414e+01
          -2.183e+01
          -1.773e+01
          -2.653e+01
          -3.902e+01
          -4.105e+01
          -3.681e+01
          -3.875e+01
          -1.961e+01
          -1.850e+01
          -2.090e+01
          -2.148e+01
          -3.960e+01
          -3.952e+01
          -4.004e+01
          -2.312e+01
          -2.281e+01
          -2.635e+01
          -4.088e+01
          -3.927e+01
          -3.998e+01
          -4.162e+01
          -2.378e+01
          -2.313e+01
          -4.339e+01
          -4.284e+01
          -4.056e+01
          -2.637e+01
          -2.319e+01
          -2.283e+01
          -3.237e+01
          -3.906e+01
          -3.937e+01
          -2.184e+01
          -2.292e+01
          -3.330e+01
          -3.856e+01
          -3.618e+01
          -2.409e+01
          -2.659e+01
          -2.206e+01
          -4.075e+01
          -3.929e+01
          -2.685e+01
          -2.960e+01
          -3.937e+01
          -4.246e+01
          -2.971e+01
          -2.958e+01
          -2.620e+01
          -4.056e+01
          -4.323e+01
          -3.415e+01
          -3.390e+01
          -2.939e+01
          -4.052e+01
          -4.294e+01
          -3.480e+01
          -3.053e+01
          -2.489e+01
          -4.044e+01
          -3.923e+01
          -2.505e+01
          -2.853e+01
          -4.147e+01
          -4.290e+01
          -4.250e+01