<?xml version="1.0"?>
<VTKFile type="UnstructuredGrid" version="0.1" byte_order="LittleEndian" compressor="vtkZLibDataCompressor">
  <UnstructuredGrid>
    <Piece NumberOfPoints="7244" NumberOfCells="14484">
      <Points>
        <DataArray type="Float32" NumberOfComponents="3" format="ascii">
          -1.434e+02 -2.944e+02 -1.675e+03
          -1.309e+02 -3.704e+02 -1.662e+03
          -2.071e+02 -3.491e+02 -1.656e+03
          -6.971e+01 -3.181e+02 -1.676e+03
          -5.169e+01 -3.827e+02 -1.664e+03
          2.217e+00 -2.937e+02 -1.678e+03
          2.032e+01 -3.735e+02 -1.665e+03
          7.857e+01 -3.200e+02 -1.675e+03
          9.440e+01 -3.930e+02 -1.658e+03
          1.506e+02 -2.842e+02 -1.675e+03
          1.530e+02 -3.575e+02 -1.662e+03
          2.113e+02 -3.976e+02 -1.646e+03
          -2.101e+02 -2.636e+02 -1.673e+03
          -2.774e+02 -2.988e+02 -1.657e+03
          -2.764e+02 -2.230e+02 -1.668e+03
          -1.450e+02 -2.145e+02 -1.686e+03
          -7.196e+01 -2.471e+02 -1.687e+03
          1.325e-01 -2.136e+02 -1.692e+03
          7.357e+01 -2.472e+02 -1.684e+03
          1.473e+02 -2.099e+02 -1.686e+03
          2.215e+02 -2.497e+02 -1.673e+03
          2.254e+02 -3.260e+02 -1.660e+03
          2.899e+02 -2.960e+02 -1.650e+03
          -2.931e+02 -1.409e+02 -1.676e+03
          -3.419e+02 -2.059e+02 -1.658e+03
          -3.763e+02 -1.551e+02 -1.657e+03
          -2.164e+02 -1.781e+02 -1.680e+03
          -1.467e+02 -1.353e+02 -1.693e+03
          -7.335e+01 -1.710e+02 -1.695e+03
          -3.612e-01 -1.347e+02 -1.698e+03
          7.326e+01 -1.720e+02 -1.696e+03
          1.478e+02 -1.343e+02 -1.695e+03
          2.209e+02 -1.733e+02 -1.682e+03
          2.946e+02 -1.378e+02 -1.671e+03
          2.916e+02 -2.148e+02 -1.666e+03
          3.661e+02 -1.797e+02 -1.656e+03
          -2.917e+02 -6.077e+01 -1.678e+03
          -3.632e+02 -9.092e+01 -1.664e+03
          -2.209e+02 -9.987e+01 -1.688e+03
          -1.477e+02 -5.738e+01 -1.697e+03
          -7.398e+01 -9.281e+01 -1.698e+03
          -4.560e-01 -5.712e+01 -1.705e+03
          7.371e+01 -9.517e+01 -1.701e+03
          1.482e+02 -5.822e+01 -1.696e+03
          2.220e+02 -9.740e+01 -1.686e+03
          2.936e+02 -5.979e+01 -1.672e+03
          3.646e+02 -1.002e+02 -1.659e+03
          -2.944e+02 1.677e+01 -1.681e+03
          -3.650e+02 -1.718e+01 -1.666e+03
          -2.202e+02 -2.071e+01 -1.690e+03
          -1.466e+02 2.058e+01 -1.700e+03
          -7.412e+01 -1.333e+01 -1.701e+03
          -5.296e-01 1.939e+01 -1.704e+03
          7.391e+01 -1.762e+01 -1.702e+03
          1.481e+02 1.833e+01 -1.693e+03
          2.218e+02 -2.059e+01 -1.688e+03
          2.930e+02 1.829e+01 -1.674e+03
          3.632e+02 -2.049e+01 -1.658e+03
          -2.978e+02 9.310e+01 -1.676e+03
          -3.680e+02 5.847e+01 -1.667e+03
          -2.235e+02 5.645e+01 -1.691e+03
          -1.526e+02 9.447e+01 -1.697e+03
          -7.287e+01 6.941e+01 -1.700e+03
          5.596e+00 9.156e+01 -1.699e+03
          7.598e+01 6.089e+01 -1.698e+03
          1.451e+02 9.596e+01 -1.689e+03
          2.203e+02 5.678e+01 -1.686e+03
          2.944e+02 9.516e+01 -1.677e+03
          3.653e+02 5.775e+01 -1.664e+03
          -2.954e+02 1.716e+02 -1.671e+03
          -3.667e+02 1.364e+02 -1.661e+03
          -2.302e+02 1.339e+02 -1.683e+03
          -1.680e+02 1.672e+02 -1.687e+03
          -9.288e+01 1.500e+02 -1.694e+03
          -1.731e+01 1.548e+02 -1.695e+03
          7.012e+01 1.453e+02 -1.696e+03
          1.504e+02 1.678e+02 -1.685e+03
          2.219e+02 1.324e+02 -1.680e+03
          2.945e+02 1.716e+02 -1.667e+03
          3.648e+02 1.354e+02 -1.657e+03
          -3.001e+02 2.431e+02 -1.665e+03
          -3.671e+02 2.142e+02 -1.653e+03
          -2.245e+02 2.213e+02 -1.678e+03
          -1.370e+02 2.283e+02 -1.683e+03
          -6.000e+01 2.239e+02 -1.687e+03
          2.020e+01 2.181e+02 -1.687e+03
          9.439e+01 2.244e+02 -1.686e+03
          1.654e+02 2.412e+02 -1.678e+03
          2.268e+02 2.096e+02 -1.674e+03
          2.873e+02 2.514e+02 -1.657e+03
          3.603e+02 2.136e+02 -1.650e+03
          -3.519e+02 2.964e+02 -1.645e+03
          -2.600e+02 2.975e+02 -1.658e+03
          -2.161e+02 3.625e+02 -1.650e+03
          -1.816e+02 2.915e+02 -1.668e+03
          -9.958e+01 2.954e+02 -1.673e+03
          -2.097e+01 2.920e+02 -1.676e+03
          5.499e+01 2.901e+02 -1.676e+03
          1.345e+02 3.039e+02 -1.670e+03
          2.151e+02 3.760e+02 -1.646e+03
          2.155e+02 2.969e+02 -1.664e+03
          -1.389e+02 3.621e+02 -1.658e+03
          -6.059e+01 3.644e+02 -1.663e+03
          1.301e+01 3.646e+02 -1.663e+03
          7.997e+01 3.597e+02 -1.663e+03
          1.451e+02 3.781e+02 -1.654e+03
          -2.597e+02 -5.526e+02 -1.594e+03
          -2.240e+02 -6.275e+02 -1.572e+03
          -2.958e+02 -6.082e+02 -1.567e+03
          -1.826e+02 -5.651e+02 -1.599e+03
          -1.437e+02 -6.303e+02 -1.582e+03
          -1.026e+02 -5.686e+02 -1.607e+03
          -6.525e+01 -6.328e+02 -1.583e+03
          -2.064e+01 -5.749e+02 -1.603e+03
          1.988e+01 -6.401e+02 -1.585e+03
          6.071e+01 -5.753e+02 -1.606e+03
          9.807e+01 -6.385e+02 -1.580e+03
          1.392e+02 -5.725e+02 -1.600e+03
          1.774e+02 -6.334e+02 -1.573e+03
          2.186e+02 -5.714e+02 -1.588e+03
          2.545e+02 -6.321e+02 -1.561e+03
          3.015e+02 -5.906e+02 -1.570e+03
          -3.868e+02 -4.723e+02 -1.593e+03
          -4.140e+02 -5.500e+02 -1.562e+03
          -4.574e+02 -4.978e+02 -1.568e+03
          -2.997e+02 -4.851e+02 -1.609e+03
          -3.409e+02 -5.404e+02 -1.582e+03
          -2.173e+02 -4.948e+02 -1.618e+03
          -1.405e+02 -5.015e+02 -1.624e+03
          -5.862e+01 -5.086e+02 -1.626e+03
          2.173e+01 -5.142e+02 -1.628e+03
          1.043e+02 -5.091e+02 -1.625e+03
          1.853e+02 -5.098e+02 -1.619e+03
          2.688e+02 -5.228e+02 -1.601e+03
          3.147e+02 -4.631e+02 -1.611e+03
          3.446e+02 -5.360e+02 -1.580e+03
          3.926e+02 -4.855e+02 -1.585e+03
          4.160e+02 -5.608e+02 -1.557e+03
          4.690e+02 -5.099e+02 -1.556e+03
          -4.037e+02 -3.872e+02 -1.610e+03
          -4.583e+02 -4.234e+02 -1.586e+03
          -3.338e+02 -4.210e+02 -1.618e+03
          -2.489e+02 -4.273e+02 -1.632e+03
          -1.754e+02 -4.282e+02 -1.641e+03
          -9.682e+01 -4.425e+02 -1.647e+03
          -1.494e+01 -4.463e+02 -1.646e+03
          6.126e+01 -4.500e+02 -1.646e+03
          1.500e+02 -4.445e+02 -1.642e+03
          2.385e+02 -4.559e+02 -1.625e+03
          3.652e+02 -4.140e+02 -1.611e+03
          4.238e+02 -3.730e+02 -1.608e+03
          4.469e+02 -4.412e+02 -1.584e+03
          -4.741e+02 -3.449e+02 -1.602e+03
          -5.313e+02 -3.820e+02 -1.572e+03
          -5.451e+02 -3.062e+02 -1.587e+03
          -4.181e+02 -3.037e+02 -1.627e+03
          -3.483e+02 -3.424e+02 -1.632e+03
          -2.796e+02 -3.677e+02 -1.638e+03
          2.877e+02 -3.843e+02 -1.635e+03
          3.510e+02 -3.389e+02 -1.632e+03
          4.140e+02 -2.951e+02 -1.625e+03
          4.762e+02 -3.211e+02 -1.606e+03
          5.011e+02 -3.936e+02 -1.581e+03
          5.429e+02 -3.348e+02 -1.580e+03
          -5.595e+02 -2.291e+02 -1.594e+03
          -6.186e+02 -2.883e+02 -1.565e+03
          -6.359e+02 -2.225e+02 -1.567e+03
          -4.864e+02 -2.641e+02 -1.613e+03
          -4.214e+02 -2.220e+02 -1.636e+03
          -3.505e+02 -2.705e+02 -1.646e+03
          3.561e+02 -2.544e+02 -1.644e+03
          4.343e+02 -2.239e+02 -1.630e+03
          5.081e+02 -2.596e+02 -1.608e+03
          5.666e+02 -2.138e+02 -1.596e+03
          5.866e+02 -2.794e+02 -1.574e+03
          6.434e+02 -2.353e+02 -1.558e+03
          -5.554e+02 -1.421e+02 -1.605e+03
          -6.104e+02 -1.662e+02 -1.582e+03
          -4.945e+02 -1.866e+02 -1.618e+03
          -4.396e+02 -1.384e+02 -1.642e+03
          4.320e+02 -1.422e+02 -1.639e+03
          4.967e+02 -1.806e+02 -1.615e+03
          5.603e+02 -1.364e+02 -1.603e+03
          6.234e+02 -1.720e+02 -1.577e+03
          -5.689e+02 -6.342e+01 -1.605e+03
          -6.326e+02 -1.009e+02 -1.580e+03
          -5.007e+02 -9.932e+01 -1.627e+03
          -4.345e+02 -5.948e+01 -1.650e+03
          4.315e+02 -6.044e+01 -1.643e+03
          4.959e+02 -9.929e+01 -1.622e+03
          5.649e+02 -6.130e+01 -1.604e+03
          6.314e+02 -1.040e+02 -1.582e+03
          -5.692e+02 1.623e+01 -1.605e+03
          -6.343e+02 -2.432e+01 -1.580e+03
          -5.033e+02 -2.147e+01 -1.628e+03
          -4.361e+02 1.874e+01 -1.647e+03
          4.331e+02 1.940e+01 -1.646e+03
          4.992e+02 -2.016e+01 -1.625e+03
          5.648e+02 1.600e+01 -1.602e+03
          6.299e+02 -2.744e+01 -1.580e+03
          -5.689e+02 9.694e+01 -1.608e+03
          -6.322e+02 5.621e+01 -1.582e+03
          -5.027e+02 5.764e+01 -1.624e+03
          -4.353e+02 9.768e+01 -1.643e+03
          4.333e+02 9.881e+01 -1.642e+03
          5.002e+02 5.958e+01 -1.626e+03
          5.642e+02 9.340e+01 -1.599e+03
          6.288e+02 5.137e+01 -1.576e+03
          -5.663e+02 1.776e+02 -1.603e+03
          -6.304e+02 1.369e+02 -1.581e+03
          -5.022e+02 1.375e+02 -1.624e+03
          -4.342e+02 1.769e+02 -1.638e+03
          4.319e+02 1.785e+02 -1.638e+03
          4.990e+02 1.404e+02 -1.621e+03
          5.645e+02 1.691e+02 -1.595e+03
          6.296e+02 1.304e+02 -1.574e+03
          -5.631e+02 2.551e+02 -1.590e+03
          -6.309e+02 2.167e+02 -1.578e+03
          -4.976e+02 2.175e+02 -1.618e+03
          -4.252e+02 2.577e+02 -1.628e+03
          3.540e+02 2.903e+02 -1.640e+03
          4.254e+02 2.566e+02 -1.629e+03
          4.964e+02 2.219e+02 -1.617e+03
          5.601e+02 2.381e+02 -1.588e+03
          6.310e+02 2.085e+02 -1.565e+03
          -5.575e+02 3.318e+02 -1.581e+03
          -6.293e+02 2.946e+02 -1.568e+03
          -4.945e+02 2.936e+02 -1.607e+03
          -4.272e+02 3.337e+02 -1.618e+03
          -3.692e+02 3.684e+02 -1.627e+03
[...]
      <PointData Scalars="depth (km)">
        <DataArray type="Float32" Name="depth (km)" NumberOfComponents="1" format="ascii">
          -3.067e+01
          -2.917e+01
          -3.190e+01
          -2.957e+01
          -2.876e+01
          -3.315e+01
          -3.094e+01
          -3.034e+01
          -3.066e+01
          -3.200e+01
          -3.007e+01
          -3.072e+01
          -3.068e+01
          -3.120e+01
          -3.137e+01
          -3.164e+01
          -3.062e+01
          -3.151e+01
          -3.400e+01
          -3.203e+01
          -3.164e+01
          -3.076e+01
          -3.612e+01
          -3.024e+01
          -3.198e+01
          -3.047e+01
          -3.384e+01
          -3.238e+01
          -3.203e+01
          -3.404e+01
          -3.105e+01
          -3.061e+01
          -3.212e+01
          -3.468e+01
          -3.224e+01
          -3.175e+01
          -3.292e+01
          -3.158e+01
          -3.188e+01
          -3.248e+01
          -3.470e+01
          -3.157e+01
          -3.155e+01
          -3.321e+01
          -3.388e+01
          -3.858e+01
          -3.558e+01
          -3.077e+01
          -3.128e+01
          -3.247e+01
          -3.111e+01
          -3.408e+01
          -3.273e+01
          -3.385e+01
          -3.785e+01
          -3.498e+01
          -3.786e+01
          -3.997e+01
          -3.243e+01
          -2.946e+01
          -3.058e+01
          -3.086e+01
          -3.453e+01
          -3.583e+01
          -3.616e+01
          -3.967e+01
          -3.606e+01
          -3.188e+01
          -3.215e+01
          -3.148e+01
          -3.104e+01
          -3.297e+01
          -3.396e+01
          -3.390e+01
          -3.517e+01
          -3.343e+01
          -3.702e+01
          -3.729e+01
          -3.599e+01
          -3.509e+01
          -2.823e+01
          -3.058e+01
          -2.951e+01
          -3.365e+01
          -3.420e+01
          -3.552e+01
          -3.333e+01
          -3.376e+01
          -3.445e+01
          -3.648e+01
          -3.476e+01
          -2.860e+01
          -3.256e+01
          -3.402e+01
          -3.372e+01
          -3.568e+01
          -3.538e+01
          -3.527e+01
          -3.430e+01
          -3.469e+01
          -3.303e+01
          -3.464e+01
          -3.354e+01
          -3.439e+01
          -3.383e+01
          -3.453e+01
          -3.044e+01
          -2.932e+01
          -3.060e+01
          -3.163e+01
          -2.820e+01
          -2.944e+01
          -3.131e+01
          -3.382e+01
          -2.722e+01
          -3.023e+01
          -2.984e+01
          -3.245e+01
          -3.196e+01
          -3.580e+01
          -3.419e+01
          -3.310e+01
          -3.084e+01
          -3.039e+01
          -2.954e+01
          -3.052e+01
          -3.109e+01
          -3.120e+01
          -3.197e+01
          -3.247e+01
          -3.007e+01
          -3.061e+01
          -3.005e+01
          -3.200e+01
          -3.136e+01
          -3.367e+01
          -3.329e+01
          -3.099e+01
          -3.362e+01
          -3.249e+01
          -3.325e+01
          -3.183e+01
          -3.140e+01
          -3.190e+01
          -2.925e+01
          -3.192e+01
          -3.011e+01
          -2.972e+01
          -3.259e+01
          -3.456e+01
          -3.247e+01
          -3.305e+01
          -3.162e+01
          -3.448e+01
          -3.107e+01
          -2.978e+01
          -3.338e+01
          -3.512e+01
          -3.270e+01
          -3.402e+01
          -3.463e+01
          -3.127e+01
          -3.234e+01
          -3.292e+01
          -3.243e+01
          -2.986e+01
          -3.165e+01
          -3.148e+01
          -3.287e+01
          -3.293e+01
          -3.593e+01
          -3.529e+01
          -3.053e+01
          -3.055e+01
          -3.390e+01
          -3.543e+01
          -3.267e+01
          -3.314e+01
          -3.489e+01
          -3.183e+01
          -3.577e+01
          -3.798e+01
          -3.354e+01
          -3.259e+01
          -3.334e+01
          -3.263e+01
          -3.184e+01
          -2.978e+01
          -3.745e+01
          -3.815e+01
          -3.551e+01
          -3.111e+01
          -3.410e+01
          -3.401e+01
          -3.296e+01
          -3.283e+01
          -3.549e+01
          -3.664e+01
          -3.856e+01
          -3.608e+01
          -2.914e+01
          -3.213e+01
          -3.584e+01
          -3.455e+01
          -3.604e+01
          -3.475e+01
          -3.891e+01
          -3.931e+01
          -2.760e+01
          -2.995e+01
          -3.173e+01
          -3.345e+01
          -3.363e+01
          -3.576e+01
          -3.647e+01
          -3.646e+01
          -3.124e+01
          -2.360e+01
          -3.050e+01
          -3.512e+01
          -3.410e+01
          -3.383e+01
          -3.144e+01
          -3.620e+01
          -3.702e+01
          -2.835e+01
          -2.241e+01
          -3.009e+01
          -3.121e+01
          -2.877e+01
          -3.136e+01
          -3.416e+01
          -3.482e+01
          -3.564e+01
          -3.601e+01
          -3.787e+01
          -3.915e+01
          -2.351e+01
          -2.907e+01
          -2.845e+01
          -2.964e+01
          -3.153e+01
          -3.237e+01
          -3.557e+01
          -3.618e+01
          -3.795e+01
          -3.409e+01
          -3.475e+01
          -3.664e+01
          -3.522e+01
          -3.613e+01
          -3.700e+01
          -3.814e+01
          -2.835e+01
          -2.980e+01
          -3.444e+01
          -3.202e+01
          -3.275e+01
          -3.528e+01
          -3.723e+01
          -3.492e+01
          -3.315e+01
          -3.348e+01
          -3.346e+01
          -3.626e+01
          -3.937e+01
          -3.840e+01
          -3.177e+01
          -3.277e+01
          -3.211e+01
          -3.432e+01
          -3.709e+01
          -3.560e+01
          -3.223e+01
          -3.401e+01
          -3.385e+01
          -3.219e+01
          -3.632e+01
          -3.715e+01
          -3.440e+01
          -3.368e+01
          -3.363e+01
          -3.659e+01
          -3.309e+01
          -3.384e+01
          -3.511e+01
          -9.953e+00
          -8.191e+00
          -1.747e+01
          -1.721e+01
          -9.457e+00
          -2.239e+01
          -1.371e+01
          -2.750e+01
          -3.135e+01
          -2.768e+01
          -3.339e+01
          -3.679e+01
          -3.695e+01
          -2.946e+01
          -2.746e+01
          -2.633e+01
          -2.811e+01
          -2.327e+01
          -2.370e+01
          -2.219e+01
          -2.791e+01
          -2.722e+01
          -3.064e+01
          -3.204e+01
          -3.098e+01
          -3.293e+01
          -3.072e+01
          -3.299e+01
          -2.920e+01
          -2.916e+01
          -3.364e+01
          -2.895e+01
          -2.607e+01
          -2.797e+01
          -2.875e+01
          -3.190e+01
          -3.150e+01
          -2.998e+01
          -3.161e+01
          -3.229e+01
          -3.248e+01
          -2.922e+01
          -3.223e+01
          -3.029e+01
          -3.199e+01
          -2.955e+01
          -3.095e+01
          -3.286e+01
          -3.283e+01
          -2.969e+01
          -3.027e+01
          -3.238e+01
          -2.925e+01
          -3.558e+01
          -3.428e+01
          -3.503e+01
          -3.602e+01
          -3.151e+01
          -2.917e+01
          -2.794e+01
          -3.223e+01
          -3.208e+01
          -3.396e+01
          -3.601e+01
          -3.761e+01
          -3.491e+01
          -3.703e+01
          -3.287e+01
          -3.040e+01
          -2.970e+01
          -3.206e+01
          -3.257e+01
          -3.851e+01
          -3.630e+01
          -3.598e+01
          -3.708e+01
          -3.394e+01
          -3.455e+01
          -3.705e+01
          -4.079e+01
          -3.860e+01
          -4.103e+01
          -3.232e+01
          -3.350e+01
          -3.227e+01
          -3.825e+01
          -3.882e+01
          -3.656e+01
          -3.443e+01
          -3.409e+01
          -3.228e+01
          -3.711e+01
          -3.866e+01
          -3.761e+01
          -2.393e+01
          -3.189e+01
          -1.974e+01
          -3.405e+01
          -3.431e+01
          -3.303e+01
          -3.865e+01
          -3.831e+01
          -2.683e+01
          -1.783e+01
          -3.282e+01
          -3.107e+01
          -3.480e+01
          -3.692e+01
          -3.999e+01
          -2.451e+01
          -2.387e+01
          -3.409e+01
          -2.872e+01
          -4.023e+01
          -3.413e+01
          -3.530e+01
          -2.673e+01
          -2.505e+01
          -2.177e+01
          -4.153e+01
          -4.214e+01
          -3.825e+01
          -2.786e+01
          -2.702e+01
          -2.692e+01
          -3.952e+01
          -4.001e+01
          -4.025e+01
          -3.939e+01
          -2.569e+01
          -2.614e+01
          -2.381e+01
          -2.958e+01
          -4.004e+01
          -3.953e+01
          -4.410e+01
          -4.406e+01
          -2.440e+01
          -3.150e+01
          -3.356e+01
          -3.149e+01
          -3.962e+01
          -3.683e+01
          -4.101e+01
          -4.586e+01
          -4.183e+01
          -3.399e+01
          -3.182e+01
          -3.205e+01
          -3.023e+01
          -3.472e+01
          -3.928e+01
          -3.865e+01
          -3.864e+01
          -4.004e+01
          -4.027e+01
          -3.296e+01
          -3.563e+01
          -3.562e+01
          -3.494e+01
          -3.161e+01
          -3.298e+01
          -3.280e+01
          -3.662e+01
          -3.342e+01
          -3.422e+01
          -3.508e+01
          -3.738e+01
          -3.855e+01
          -4.058e+01
          -4.102e+01
          -3.249e+01
          -2.950e+01
          -2.862e+01
          -3.000e+01
          -3.409e+01
          -3.423e+01
          -3.463e+01
          -3.549e+01
          -3.539e+01
          -3.553e+01
          -3.641e+01
          -3.655e+01
          -3.938e+01
          -3.052e+01
          -3.182e+01
          -3.196e+01
          -3.414e+01
          -3.646e+01
          -3.695e+01
          -3.698e+01
          -3.843e+01
          -8.348e+00
          -1.553e+01
          -1.513e+01
          -8.249e+00
          -1.255e+01
          -2.700e+01
          -2.331e+01
          -2.960e+01
          -3.435e+01
          -2.836e+01
          -3.020e+01
          -3.127e+01
          -3.197e+01
          -3.020e+01
          -3.070e+01
          -3.669e+01
          -3.456e+01
          -3.618e+01
          -2.661e+01
          -2.842e+01
          -2.490e+01
          -2.579e+01
          -3.050e+01
          -2.953e+01
          -2.917e+01
          -3.149e+01
          -3.077e+01
          -3.076e+01
          -3.120e+01
          -3.324e+01
          -3.433e+01
          -2.954e+01
          -3.363e+01
          -3.018e+01
          -2.781e+01
          -3.033e+01
          -3.135e+01
          -2.946e+01
          -3.081e+01
          -3.046e+01
          -3.093e+01
          -3.061e+01
          -3.442e+01
          -2.853e+01
          -3.323e+01
          -3.290e+01
          -3.442e+01
          -2.770e+01
          -2.194e+01
          -1.631e+01
          -3.275e+01
          -3.168e+01
          -3.449e+01
          -3.694e+01
          -3.790e+01
          -3.598e+01
          -1.778e+01
          -2.175e+01
          -1.819e+01
          -2.340e+01
          -3.156e+01
          -3.433e+01
          -3.707e+01
          -3.369e+01
          -3.712e+01
          -2.674e+01
          -1.853e+01
          -2.799e+01
          -4.115e+01
          -4.042e+01
          -3.874e+01
          -3.921e+01
          -2.248e+01
          -2.206e+01
          -3.735e+01
          -4.235e+01
          -3.960e+01
          -2.776e+01
          -2.292e+01
          -2.303e+01
          -2.689e+01
          -4.351e+01
          -3.973e+01
          -2.750e+01
          -2.277e+01
          -3.731e+01
          -3.966e+01
          -3.731e+01
          -3.941e+01
          -4.166e+01
          -2.096e+01
          -2.438e+01
          -3.092e+01
          -3.540e+01
          -4.115e+01
          -3.949e+01
          -2.458e+01
          -2.941e+01
          -4.083e+01
          -4.002e+01
          -4.298e+01
          -2.901e+01
          -3.002e+01
          -4.308e+01
          -4.103e+01
          -4.488e+01
          -3.200e+01
          -3.466e+01
          -2.636e+01
          -3.893e+01
          -3.954e+01
          -4.463e+01
          -2.491e+01
          -3.366e+01
          -2.782e+01
          -4.222e+01
          -4.289e+01
          -3.912e+01
          -3.079e+01
          -2.864e+01
          -2.852e+01
          -4.417e+01
          -4.179e+01
          -4.140e+01
          -2.847e+01
          -2.908e+01
          -2.799e+01
          -4.474e+01
          -4.148e+01
          -3.965e+01
          -2.978e+01
          -3.216e+01
          -2.746e+01
          -2.603e+01
          -3.847e+01
          -3.315e+01
          -4.842e+01
          -4.309e+01
          -2.694e+01
          -2.932e+01
          -2.804e+01
          -2.747e+01
          -3.878e+01
          -4.536e+01
          -4.650e+01
          -4.839e+01
          -2.994e+01
          -2.601e+01
          -2.511e+01
          -3.379e+01
          -3.658e+01
          -4.613e+01
          -4.514e+01
          -4.536e+01
          -3.984e+01
          -2.404e+01
          -2.778e+01
          -3.425e+01
          -3.522e+01
          -3.023e+01
          -3.677e+01
          -4.131e+01
          -4.440e+01
          -3.944e+01
          -4.483e+01
          -2.396e+01
          -2.816e+01
          -2.712e+01
          -3.098e+01
          -3.206e+01
          -3.178e+01
          -2.920e+01
          -3.345e+01
          -3.428e+01
          -3.892e+01
          -3.325e+01
          -3.970e+01
          -3.601e+01
          -4.234e+01
          -4.228e+01
          -3.155e+01
          -2.838e+01
          -2.963e+01
          -3.145e+01
          -3.115e+01
          -3.373e+01
          -3.172e+01
          -3.724e+01
          -3.564e+01
          -3.340e+01
          -3.955e+01
          -3.952e+01
          -4.048e+01
          -3.275e+01
          -3.140e+01
          -3.296e+01
          -3.497e+01
          -3.690e+01
          -3.594e+01
          -3.032e+01
          -3.207e+01
          -3.877e+01
          -3.541e+01
          -4.018e+01
          -3.609e+01
          -3.366e+01
          -3.286e+01
          -3.640e+01
          -2.797e+01
          -3.155e+01
          -3.043e+01
          -3.271e+01
          -3.186e+01
          -3.114e+01
          -3.309e+01
          -3.175e+01
          -3.022e+01
          -2.938e+01
          -3.021e+01
          -2.989e+01
          -2.932e+01
          -3.116e+01
          -3.065e+01
          -3.194e+01
          -3.919e+01
          -3.433e+01
          -2.777e+01
          -2.673e+01
          -2.962e+01
          -2.894e+01
          -3.020e+01
          -3.103e+01
          -3.319e+01
          -2.983e+01
          -3.090e+01
          -3.302e+01
          -2.998e+01
          -3.123e+01
          -2.989e+01
          -3.291e+01
          -3.084e+01
          -2.868e+01
          -2.868e+01
          -3.231e+01
          -3.260e+01
          -3.380e+01
          -3.433e+01
          -3.477e+01
          -2.720e+01
          -3.086e+01
          -2.582e+01
          -3.782e+01
          -3.802e+01
          -3.708e+01
          -3.714e+01
          -1.847e+01
          -2.135e+01
          -3.061e+01
          -3.742e+01
          -3.620e+01
          -3.695e+01
          -3.837e+01
          -2.464e+01
          -3.353e+01
          -2.642e+01
          -3.844e+01
          -3.969e+01
          -3.793e+01
          -4.049e+01
          -2.146e+01
          -2.629e+01
          -4.096e+01
          -4.202e+01
          -2.742e+01
          -2.690e+01
          -2.833e+01
          -2.593e+01
          -4.426e+01
          -4.357e+01
          -2.460e+01
          -2.703e+01
          -4.231e+01
          -4.220e+01
          -3.797e+01
          -4.167e+01
          -2.482e+01
          -2.657e+01
          -4.289e+01
          -4.501e+01
          -3.115e+01
          -3.000e+01
          -3.494e+01
          -3.197e+01
          -3.201e+01
          -3.634e+01
          -3.319e+01
          -2.464e+01
          -3.207e+01
          -2.966e+01
          -4.038e+01
          -3.452e+01
          -3.265e+01
          -3.162e+01
          -4.528e+01
          -4.778e+01
          -3.264e+01
          -3.283e+01
          -4.592e+01
          -4.047e+01
          -4.278e+01
          -2.896e+01
          -2.866e+01
          -2.952e+01
          -4.552e+01
          -4.653e+01
          -4.323e+01
          -3.317e+01
          -2.946e+01
          -2.919e+01
          -4.178e+01
          -4.219e+01
          -2.974e+01
          -3.296e+01
          -3.233e+01
          -4.027e+01
          -4.555e+01
          -4.371e+01
          -3.327e+01
          -2.951e+01
          -2.763e+01
          -4.191e+01
          -4.283e+01
          -4.202e+01
          -3.048e+01
          -2.891e+01
          -3.182e+01
          -4.597e+01
          -4.070e+01
          -4.191e+01
          -4.182e+01
          -3.056e+01
          -3.003e+01
          -2.250e+01
          -3.331e+01
          -4.727e+01
          -4.378e+01
          -4.198e+01
          -2.725e+01
          -2.312e+01
          -2.689e+01
          -2.637e+01
          -2.376e+01
          -3.876e+01
          -1.984e+01
          -2.009e+01
          -2.016e+01
          -3.460e+01
          -2.848e+01
          -2.306e+01
          -2.848e+01
          -2.765e+01
          -2.718e+01
          -3.224e+01
          -3.989e+01
          -4.394e+01
          -4.534e+01
          -2.915e+01
          -2.356e+01
          -2.232e+01
          -2.317e+01
          -2.119e+01
          -2.833e+01
          -3.284e+01
          -3.398e+01
          -3.634e+01
          -3.665e+01
          -3.500e+01
          -3.632e+01
          -3.649e+01
          -3.845e+01
          -3.918e+01
          -4.468e+01
          -4.448e+01
          -3.829e+01
          -3.096e+01
          -3.687e+01
          -3.152e+01
          -3.543e+01
          -3.678e+01
          -3.623e+01
          -3.742e+01
          -3.887e+01
          -3.075e+01
          -3.083e+01
          -3.240e+01
          -3.062e+01
          -3.080e+01
          -3.147e+01
          -3.088e+01
          -2.848e+01
          -2.977e+01
          -3.020e+01
          -2.980e+01
          -2.646e+01
          -2.676e+01
          -3.001e+01
          -3.149e+01
          -2.676e+01
          -3.271e+01
          -3.509e+01
          -3.250e+01
          -3.087e+01
          -3.009e+01
          -3.087e+01
          -3.120e+01
          -3.248e+01
          -3.101e+01
          -3.127e+01
          -3.286e+01
          -3.057e+01
          -2.940e+01
          -3.238e+01
          -2.931e+01
          -3.012e+01
          -3.032e+01
          -2.965e+01
          -3.138e+01
          -3.118e+01
          -3.415e+01
          -2.846e+01
          -3.181e+01
          -3.386e+01
          -2.800e+01
          -2.876e+01
          -2.777e+01
          -2.844e+01
          -2.942e+01
          -3.174e+01
          -2.950e+01
          -3.282e+01
          -3.337e+01
          -3.210e+01
          -3.350e+01
          -3.055e+01
          -3.620e+01
          -3.639e+01
          -4.021e+01
          -3.748e+01
          -2.500e+01
          -2.802e+01
          -2.166e+01
          -2.847e+01
          -3.658e+01
          -3.606e+01
          -3.600e+01
          -3.799e+01
          -3.175e+01
          -2.286e+01
          -2.556e+01
          -3.297e+01
          -3.945e+01
          -4.098e+01
          -2.843e+01
          -3.703e+01
          -4.118e+01
          -3.879e+01
          -3.952e+01
          -2.738e+01