<?xml version="1.0"?>
<VTKFile type="UnstructuredGrid" version="0.1" byte_order="LittleEndian" compressor="vtkZLibDataCompressor">
  <UnstructuredGrid>
    <Piece NumberOfPoints="2874" NumberOfCells="5744">
      <Points>
        <DataArray type="Float32" NumberOfComponents="3" format="ascii">
          -1.177e+02 -2.372e+02 -1.686e+03
          -1.653e+02 -3.526e+02 -1.661e+03
          -2.302e+02 -2.592e+02 -1.671e+03
          -4.445e+00 -2.032e+02 -1.694e+03
          -3.415e+01 -3.284e+02 -1.674e+03
          9.868e+01 -2.578e+02 -1.682e+03
          8.236e+01 -3.583e+02 -1.667e+03
          2.045e+02 -3.356e+02 -1.661e+03
          -2.210e+02 -1.436e+02 -1.684e+03
          -3.326e+02 -2.078e+02 -1.660e+03
          -3.238e+02 -8.092e+01 -1.672e+03
          -1.094e+02 -1.186e+02 -1.696e+03
          7.560e+00 -8.258e+01 -1.703e+03
          1.167e+02 -1.466e+02 -1.696e+03
          2.311e+02 -1.001e+02 -1.684e+03
          2.230e+02 -2.218e+02 -1.677e+03
          3.350e+02 -1.815e+02 -1.662e+03
          -2.124e+02 -1.903e+01 -1.691e+03
          -3.225e+02 4.075e+01 -1.675e+03
          -1.006e+02 -4.313e+00 -1.702e+03
          1.316e+01 3.785e+01 -1.703e+03
          1.225e+02 -2.872e+01 -1.696e+03
          2.340e+02 2.588e+01 -1.686e+03
          3.367e+02 -5.089e+01 -1.662e+03
          -2.191e+02 1.090e+02 -1.688e+03
          -3.312e+02 1.575e+02 -1.665e+03
          -1.012e+02 1.070e+02 -1.698e+03
          2.526e+01 1.543e+02 -1.696e+03
          1.292e+02 9.132e+01 -1.691e+03
          2.305e+02 1.600e+02 -1.679e+03
          3.325e+02 8.408e+01 -1.671e+03
          -2.847e+02 2.488e+02 -1.666e+03
          -2.051e+02 3.430e+02 -1.656e+03
          -1.749e+02 2.227e+02 -1.681e+03
          -6.685e+01 2.171e+02 -1.688e+03
          1.282e+02 2.181e+02 -1.685e+03
          2.278e+02 2.983e+02 -1.662e+03
          3.280e+02 2.151e+02 -1.656e+03
          -8.784e+01 3.320e+02 -1.668e+03
          2.290e+01 2.871e+02 -1.676e+03
          1.174e+02 3.377e+02 -1.665e+03
          -2.169e+02 -6.480e+02 -1.566e+03
          -2.356e+02 -7.529e+02 -1.512e+03
          -3.399e+02 -6.789e+02 -1.527e+03
          -9.110e+01 -6.327e+02 -1.582e+03
          -1.312e+02 -7.243e+02 -1.531e+03
          3.509e+01 -6.410e+02 -1.585e+03
          -2.046e+01 -7.346e+02 -1.539e+03
          1.576e+02 -6.371e+02 -1.575e+03
          9.295e+01 -7.425e+02 -1.537e+03
          2.810e+02 -6.262e+02 -1.559e+03
          2.118e+02 -7.345e+02 -1.533e+03
          3.247e+02 -7.243e+02 -1.510e+03
          -3.488e+02 -4.777e+02 -1.599e+03
          -4.060e+02 -5.862e+02 -1.550e+03
          -4.669e+02 -4.877e+02 -1.568e+03
          -2.864e+02 -5.671e+02 -1.584e+03
          -1.653e+02 -5.387e+02 -1.610e+03
          -3.422e+01 -5.413e+02 -1.616e+03
          9.469e+01 -5.408e+02 -1.616e+03
          2.243e+02 -5.335e+02 -1.602e+03
          3.506e+02 -5.232e+02 -1.582e+03
          4.016e+02 -6.316e+02 -1.533e+03
          4.664e+02 -5.335e+02 -1.550e+03
          -5.010e+02 -3.787e+02 -1.583e+03
          -5.905e+02 -4.559e+02 -1.534e+03
          -6.163e+02 -3.499e+02 -1.551e+03
          -3.970e+02 -3.817e+02 -1.613e+03
          -2.382e+02 -4.456e+02 -1.630e+03
          -1.006e+02 -4.412e+02 -1.647e+03
          2.214e+01 -4.458e+02 -1.648e+03
          1.587e+02 -4.448e+02 -1.641e+03
          2.859e+02 -4.268e+02 -1.624e+03
          4.089e+02 -4.127e+02 -1.601e+03
          5.072e+02 -3.648e+02 -1.587e+03
          5.477e+02 -4.651e+02 -1.544e+03
          6.370e+02 -3.972e+02 -1.524e+03
          -6.418e+02 -2.174e+02 -1.565e+03
          -7.057e+02 -3.054e+02 -1.521e+03
          -7.684e+02 -2.119e+02 -1.502e+03
          -5.385e+02 -2.741e+02 -1.596e+03
          -4.274e+02 -2.660e+02 -1.631e+03
          -3.036e+02 -3.396e+02 -1.641e+03
          3.200e+02 -3.115e+02 -1.641e+03
          4.200e+02 -2.720e+02 -1.627e+03
          5.167e+02 -2.373e+02 -1.607e+03
          6.012e+02 -3.064e+02 -1.561e+03
          -6.268e+02 -9.451e+01 -1.582e+03
          -7.231e+02 -1.307e+02 -1.538e+03
          -5.299e+02 -1.684e+02 -1.611e+03
          -4.294e+02 -1.324e+02 -1.646e+03
          4.380e+02 -1.274e+02 -1.638e+03
          5.519e+02 -1.378e+02 -1.605e+03
          6.476e+02 -8.368e+01 -1.575e+03
          6.417e+02 -2.064e+02 -1.563e+03
          7.352e+02 -1.618e+02 -1.522e+03
          -6.334e+02 2.346e+01 -1.581e+03
          -7.352e+02 -2.298e+01 -1.536e+03
          -5.275e+02 -4.661e+01 -1.619e+03
          -4.268e+02 -3.257e+00 -1.651e+03
          4.305e+02 1.417e+01 -1.646e+03
          5.308e+02 -3.067e+01 -1.616e+03
          6.308e+02 3.096e+01 -1.577e+03
          7.380e+02 -3.454e+01 -1.530e+03
          -6.239e+02 1.454e+02 -1.583e+03
          -7.296e+02 9.275e+01 -1.537e+03
          -5.307e+02 7.362e+01 -1.618e+03
          -4.301e+02 1.236e+02 -1.644e+03
          4.280e+02 1.499e+02 -1.640e+03
          5.267e+02 9.113e+01 -1.614e+03
          6.252e+02 1.521e+02 -1.575e+03
          7.292e+02 8.593e+01 -1.539e+03
          -6.226e+02 2.681e+02 -1.574e+03
          -7.191e+02 2.076e+02 -1.539e+03
          -5.192e+02 2.015e+02 -1.614e+03
          -4.107e+02 2.593e+02 -1.631e+03
          -3.278e+02 3.582e+02 -1.639e+03
          3.397e+02 3.343e+02 -1.634e+03
          4.331e+02 2.815e+02 -1.622e+03
          5.264e+02 2.175e+02 -1.606e+03
          6.163e+02 2.767e+02 -1.558e+03
          7.144e+02 2.074e+02 -1.522e+03
          -7.190e+02 3.254e+02 -1.514e+03
          -6.321e+02 3.874e+02 -1.544e+03
          -5.224e+02 3.207e+02 -1.594e+03
          -4.344e+02 3.900e+02 -1.606e+03
          -2.427e+02 4.538e+02 -1.626e+03
          -1.167e+02 4.378e+02 -1.640e+03
          1.541e+01 4.138e+02 -1.649e+03
          1.587e+02 4.244e+02 -1.641e+03
          2.794e+02 4.198e+02 -1.624e+03
          4.180e+02 4.198e+02 -1.593e+03
          5.199e+02 3.488e+02 -1.580e+03
          6.262e+02 3.962e+02 -1.526e+03
          -5.403e+02 4.384e+02 -1.559e+03
          -4.552e+02 5.150e+02 -1.562e+03
          -3.541e+02 4.796e+02 -1.596e+03
          -2.862e+02 5.701e+02 -1.580e+03
          -1.648e+02 5.433e+02 -1.603e+03
          -3.866e+01 5.245e+02 -1.619e+03
          8.552e+01 5.142e+02 -1.622e+03
          2.186e+02 5.215e+02 -1.608e+03
          3.451e+02 5.170e+02 -1.582e+03
          4.570e+02 5.418e+02 -1.545e+03
          5.323e+02 4.637e+02 -1.544e+03
          -3.984e+02 6.066e+02 -1.544e+03
          -3.233e+02 6.830e+02 -1.524e+03
          -2.047e+02 6.517e+02 -1.561e+03
          -8.543e+01 6.341e+02 -1.580e+03
          3.265e+01 6.194e+02 -1.584e+03
          1.526e+02 6.119e+02 -1.583e+03
          2.097e+02 7.109e+02 -1.533e+03
          2.778e+02 6.147e+02 -1.561e+03
          3.913e+02 6.334e+02 -1.527e+03
          -2.330e+02 7.555e+02 -1.514e+03
          -1.189e+02 7.396e+02 -1.529e+03
          -6.162e+00 7.273e+02 -1.539e+03
          1.036e+02 7.156e+02 -1.542e+03
          -1.098e+02 -9.159e+02 -1.461e+03
          -1.186e+02 -1.011e+03 -1.390e+03
          -2.142e+02 -9.617e+02 -1.408e+03
          -1.405e+01 -9.495e+02 -1.438e+03
          -1.347e+01 -1.026e+03 -1.357e+03
          8.596e+01 -9.150e+02 -1.438e+03
          9.545e+01 -1.009e+03 -1.372e+03
          1.928e+02 -9.390e+02 -1.413e+03
          -3.277e+02 -7.937e+02 -1.470e+03
          -4.146e+02 -8.534e+02 -1.419e+03
          -5.091e+02 -8.351e+02 -1.394e+03
          -2.220e+02 -8.631e+02 -1.471e+03
          -3.183e+02 -9.028e+02 -1.407e+03
          -1.135e+02 -8.247e+02 -1.508e+03
          7.142e+00 -8.398e+02 -1.495e+03
          1.387e+02 -8.356e+02 -1.488e+03
          2.489e+02 -8.329e+02 -1.477e+03
          2.926e+02 -9.166e+02 -1.409e+03
          3.614e+02 -8.157e+02 -1.454e+03
          3.979e+02 -9.036e+02 -1.393e+03
          4.823e+02 -8.399e+02 -1.406e+03
          -6.081e+02 -6.419e+02 -1.461e+03
          -6.691e+02 -7.286e+02 -1.390e+03
          -7.195e+02 -6.272e+02 -1.413e+03
          -4.810e+02 -6.561e+02 -1.497e+03
          -5.539e+02 -7.389e+02 -1.432e+03
          -4.343e+02 -7.470e+02 -1.471e+03
          4.440e+02 -7.393e+02 -1.473e+03
          5.119e+02 -6.539e+02 -1.488e+03
          5.554e+02 -7.655e+02 -1.420e+03
          6.227e+02 -6.911e+02 -1.427e+03
          -7.672e+02 -5.227e+02 -1.440e+03
          -8.320e+02 -6.134e+02 -1.375e+03
          -8.771e+02 -5.140e+02 -1.387e+03
          -6.584e+02 -5.351e+02 -1.480e+03
          -5.395e+02 -5.621e+02 -1.519e+03
          5.814e+02 -5.794e+02 -1.493e+03
          6.604e+02 -5.093e+02 -1.483e+03
          6.918e+02 -6.199e+02 -1.422e+03
          7.632e+02 -5.407e+02 -1.423e+03
          -8.030e+02 -3.267e+02 -1.471e+03
          -8.343e+02 -4.267e+02 -1.438e+03
          -7.139e+02 -4.237e+02 -1.495e+03
          7.394e+02 -4.220e+02 -1.471e+03
          8.118e+02 -3.403e+02 -1.451e+03
          8.370e+02 -4.612e+02 -1.404e+03
          9.021e+02 -3.862e+02 -1.386e+03
          -8.651e+02 -2.170e+02 -1.451e+03
          -9.082e+02 -3.356e+02 -1.416e+03
          7.190e+02 -2.951e+02 -1.513e+03
          8.174e+02 -2.227e+02 -1.469e+03
          9.079e+02 -2.743e+02 -1.409e+03
          -9.294e+02 -1.134e+02 -1.435e+03
          -9.645e+02 -2.310e+02 -1.398e+03
          -1.021e+03 -1.448e+02 -1.368e+03
          -8.292e+02 -9.261e+01 -1.484e+03
          8.312e+02 -9.924e+01 -1.481e+03
          9.177e+02 -1.566e+02 -1.422e+03
          -9.244e+02 2.229e+00 -1.445e+03
          -1.013e+03 -3.558e+01 -1.373e+03
          -8.356e+02 3.326e+01 -1.499e+03
          8.270e+02 2.494e+01 -1.481e+03
          9.186e+02 -3.389e+01 -1.426e+03
          -9.143e+02 1.269e+02 -1.436e+03
          -1.003e+03 7.866e+01 -1.376e+03
          -8.272e+02 1.530e+02 -1.492e+03
          8.169e+02 1.458e+02 -1.484e+03
          9.107e+02 9.242e+01 -1.428e+03
          -9.922e+02 1.965e+02 -1.370e+03
          -9.071e+02 2.565e+02 -1.430e+03
          -8.121e+02 2.592e+02 -1.485e+03
          7.131e+02 3.295e+02 -1.505e+03
[...]
      <PointData Scalars="depth (km)">
        <DataArray type="Float32" Name="depth (km)" NumberOfComponents="1" format="ascii">
          -3.077e+01
          -3.104e+01
          -3.038e+01
          -3.099e+01
          -3.058e+01
          -3.279e+01
          -3.028e+01
          -2.995e+01
          -3.301e+01
          -3.179e+01
          -3.255e+01
          -3.353e+01
          -3.223e+01
          -3.046e+01
          -3.444e+01
          -3.116e+01
          -3.242e+01
          -3.262e+01
          -3.061e+01
          -3.235e+01
          -3.345e+01
          -3.639e+01
          -3.506e+01
          -4.056e+01
          -3.145e+01
          -3.181e+01
          -3.267e+01
          -3.437e+01
          -3.866e+01
          -3.532e+01
          -3.174e+01
          -2.887e+01
          -3.344e+01
          -3.217e+01
          -3.401e+01
          -3.364e+01
          -3.317e+01
          -3.553e+01
          -3.454e+01
          -3.620e+01
          -3.419e+01
          -2.822e+01
          -3.207e+01
          -3.169e+01
          -3.058e+01
          -3.869e+01
          -2.707e+01
          -3.172e+01
          -3.125e+01
          -2.760e+01
          -3.333e+01
          -2.409e+01
          -3.149e+01
          -3.206e+01
          -3.090e+01
          -3.015e+01
          -3.061e+01
          -3.139e+01
          -3.292e+01
          -3.017e+01
          -3.351e+01
          -3.393e+01
          -3.105e+01
          -3.267e+01
          -3.374e+01
          -3.134e+01
          -3.221e+01
          -3.275e+01
          -3.108e+01
          -2.921e+01
          -3.007e+01
          -2.971e+01
          -3.348e+01
          -3.363e+01
          -3.190e+01
          -3.443e+01
          -3.839e+01
          -3.190e+01
          -3.280e+01
          -3.636e+01
          -3.103e+01
          -3.038e+01
          -3.419e+01
          -3.649e+01
          -3.484e+01
          -3.206e+01
          -3.648e+01
          -3.285e+01
          -3.245e+01
          -3.283e+01
          -3.112e+01
          -3.644e+01
          -3.442e+01
          -3.211e+01
          -3.528e+01
          -3.960e+01
          -3.358e+01
          -3.419e+01
          -3.343e+01
          -3.173e+01
          -3.576e+01
          -3.627e+01
          -3.868e+01
          -3.848e+01
          -2.960e+01
          -3.332e+01
          -3.242e+01
          -3.357e+01
          -3.550e+01
          -3.728e+01
          -3.564e+01
          -3.209e+01
          -2.357e+01
          -2.626e+01
          -3.019e+01
          -3.516e+01
          -2.789e+01
          -3.488e+01
          -3.505e+01
          -3.341e+01
          -3.924e+01
          -4.278e+01
          -2.963e+01
          -2.428e+01
          -2.934e+01
          -2.806e+01
          -3.125e+01
          -3.587e+01
          -3.658e+01
          -3.488e+01
          -3.633e+01
          -3.712e+01
          -3.759e+01
          -4.086e+01
          -2.990e+01
          -3.083e+01
          -3.389e+01
          -3.318e+01
          -3.677e+01
          -3.509e+01
          -3.307e+01
          -3.292e+01
          -3.738e+01
          -3.764e+01
          -3.976e+01
          -3.089e+01
          -3.569e+01
          -3.312e+01
          -3.259e+01
          -3.570e+01
          -3.338e+01
          -3.427e+01
          -3.686e+01
          -3.876e+01
          -2.921e+01
          -3.496e+01
          -3.533e+01
          -3.397e+01
          -9.480e+00
          -1.489e+01
          -1.869e+01
          -1.387e+01
          -3.631e+01
          -3.059e+01
          -3.169e+01
          -2.973e+01
          -3.448e+01
          -2.994e+01
          -3.399e+01
          -1.693e+01
          -3.567e+01
          -1.453e+01
          -2.227e+01
          -2.456e+01
          -2.329e+01
          -3.059e+01
          -3.165e+01
          -2.951e+01
          -3.018e+01
          -2.961e+01
          -3.069e+01
          -3.175e+01
          -3.306e+01
          -3.297e+01
          -3.092e+01
          -3.055e+01
          -3.297e+01
          -3.123e+01
          -3.337e+01
          -2.409e+01
          -1.731e+01
          -1.776e+01
          -3.156e+01
          -3.022e+01
          -3.379e+01
          -3.578e+01
          -3.831e+01
          -3.449e+01
          -3.007e+01
          -2.117e+01
          -2.740e+01
          -3.760e+01
          -4.011e+01
          -3.907e+01
          -3.931e+01
          -3.366e+01
          -2.215e+01
          -3.621e+01
          -4.135e+01
          -3.904e+01
          -2.357e+01
          -2.314e+01
          -2.378e+01
          -3.491e+01
          -3.597e+01
          -3.745e+01
          -2.190e+01
          -3.035e+01
          -2.088e+01
          -4.037e+01
          -4.077e+01
          -2.979e+01
          -3.261e+01
          -2.396e+01
          -3.664e+01
          -4.105e+01
          -3.446e+01
          -2.448e+01
          -2.513e+01
          -3.988e+01
          -4.038e+01
          -4.167e+01
          -2.803e+01
          -2.924e+01
          -2.635e+01
          -3.458e+01
          -4.458e+01
          -4.117e+01
          -3.266e+01
          -2.665e+01
          -2.495e+01
          -3.465e+01
          -3.960e+01
          -4.538e+01
          -4.868e+01
          -4.364e+01
          -2.736e+01
          -2.679e+01
          -3.361e+01
          -3.523e+01
          -3.626e+01
          -4.171e+01
          -4.091e+01
          -4.394e+01
          -4.607e+01
          -2.336e+01
          -3.697e+01
          -2.873e+01
          -2.955e+01
          -3.180e+01
          -3.023e+01
          -3.518e+01
          -3.703e+01
          -3.892e+01
          -3.767e+01
          -3.691e+01
          -4.235e+01
          -2.985e+01
          -3.114e+01
          -3.161e+01
          -3.302e+01
          -3.874e+01
          -3.484e+01
          -2.984e+01
          -3.903e+01
          -4.398e+01
          -3.540e+01
          -3.390e+01
          -3.836e+01
          -3.138e+01
          -2.994e+01
          -3.314e+01
          -3.098e+01
          -2.700e+01
          -3.017e+01
          -3.129e+01
          -2.663e+01
          -3.180e+01
          -2.612e+01
          -3.035e+01
          -2.910e+01
          -2.974e+01
          -3.151e+01
          -3.026e+01
          -3.128e+01
          -3.657e+01
          -3.166e+01
          -2.931e+01
          -3.207e+01
          -3.002e+01
          -3.052e+01
          -3.194e+01
          -2.825e+01
          -2.890e+01
          -2.883e+01
          -3.221e+01
          -3.147e+01
          -3.368e+01
          -2.932e+01
          -3.274e+01
          -3.015e+01
          -3.383e+01
          -2.249e+01
          -3.771e+01
          -3.820e+01
          -3.653e+01
          -3.626e+01
          -3.245e+01
          -2.716e+01
          -2.727e+01
          -3.665e+01
          -3.930e+01
          -3.850e+01
          -3.684e+01
          -2.356e+01
          -2.677e+01
          -4.365e+01
          -3.865e+01
          -2.545e+01
          -2.851e+01
          -3.043e+01
          -2.691e+01
          -4.146e+01
          -4.245e+01
          -2.972e+01
          -2.740e+01
          -4.033e+01
          -2.980e+01
          -4.523e+01
          -4.381e+01
          -3.428e+01
          -3.172e+01
          -4.280e+01
          -2.644e+01
          -3.332e+01
          -3.246e+01
          -2.374e+01
          -4.319e+01
          -4.747e+01
          -4.183e+01
          -2.912e+01
          -3.303e+01
          -3.107e+01
          -4.616e+01
          -4.163e+01
          -4.102e+01
          -1.341e+01
          -3.333e+01
          -2.976e+01
          -4.151e+01
          -4.376e+01
          -3.276e+01
          -3.371e+01
          -2.764e+01
          -4.117e+01
          -4.595e+01
          -4.561e+01
          -3.333e+01
          -3.008e+01
          -2.963e+01
          -4.583e+01
          -4.100e+01
          -4.040e+01
          -4.010e+01
          -3.150e+01
          -2.395e+01
          -3.055e+01
          -2.444e+01
          -1.950e+01
          -3.837e+01
          -4.721e+01
          -4.197e+01
          -2.741e+01
          -2.896e+01
          -2.355e+01
          -2.656e+01
          -3.061e+01
          -3.726e+01
          -4.181e+01
          -3.874e+01
          -2.124e+01
          -4.099e+01
          -2.490e+01
          -3.012e+01
          -2.369e+01
          -2.006e+01
          -3.650e+01
          -3.344e+01
          -3.668e+01
          -3.734e+01
          -3.852e+01
          -3.913e+01
          -4.338e+01
          -4.413e+01
          -2.363e+01
          -2.935e+01
          -3.618e+01
          -3.711e+01
          -3.578e+01
          -2.880e+01
          -3.190e+01
          -2.971e+01
          -3.054e+01
          -2.992e+01
          -3.079e+01
          -3.195e+01
          -3.285e+01
          -3.344e+01
          -3.220e+01
          -2.706e+01
          -3.333e+01
          -3.186e+01
          -2.923e+01
          -2.829e+01
          -3.160e+01
          -3.056e+01
          -3.430e+01
          -3.144e+01
          -3.297e+01
          -3.073e+01
          -3.293e+01
          -2.963e+01
          -2.825e+01
          -2.976e+01
          -2.977e+01
          -3.163e+01
          -3.249e+01
          -3.432e+01
          -3.164e+01
          -3.456e+01
          -3.274e+01
          -3.193e+01
          -3.233e+01
          -3.336e+01
          -3.147e+01
          -3.602e+01
          -3.579e+01
          -3.781e+01
          -3.830e+01
          -2.464e+01
          -2.690e+01
          -3.867e+01
          -3.974e+01
          -3.378e+01
          -2.801e+01
          -2.463e+01
          -4.500e+01
          -4.203e+01
          -4.209e+01
          -3.973e+01
          -4.019e+01
          -4.335e+01
          -4.244e+01
          -2.880e+01
          -4.160e+01
          -4.158e+01
          -4.149e+01
          -4.402e+01
          -3.268e+01
          -2.446e+01
          -4.130e+01
          -4.454e+01
          -3.853e+01
          -3.082e+01
          -2.561e+01
          -4.653e+01
          -4.254e+01
          -2.292e+01
          -2.089e+01
          -4.356e+01
          -4.291e+01
          -1.349e+01
          -1.323e+01
          -4.085e+01
          -4.211e+01
          -4.354e+01
          -1.307e+01
          -1.290e+01
          -1.369e+01
          -4.396e+01
          -4.364e+01
          -1.228e+01
          -1.359e+01
          -2.084e+01
          -4.577e+01
          -4.230e+01
          -1.471e+01
          -3.097e+01
          -3.467e+01
          -4.572e+01
          -4.715e+01
          -4.304e+01
          -3.350e+01
          -3.030e+01
          -3.526e+01
          -4.348e+01
          -4.642e+01
          -3.352e+01
          -3.111e+01
          -2.825e+01
          -2.666e+01
          -2.393e+01
          -4.277e+01
          -4.222e+01
          -4.377e+01
          -2.541e+01
          -3.089e+01
          -3.007e+01
          -2.400e+01
          -2.404e+01
          -4.151e+01
          -4.687e+01
          -3.843e+01
          -4.393e+01
          -2.746e+01
          -2.442e+01
          -2.770e+01
          -3.254e+01
          -2.904e+01
          -3.437e+01
          -3.512e+01
          -3.667e+01
          -3.706e+01
          -3.663e+01
          -3.878e+01
          -2.768e+01
          -3.160e+01
          -3.096e+01
          -3.442e+01
          -4.060e+01
          -3.224e+01
          -3.216e+01
          -3.084e+01
          -3.051e+01
          -3.353e+01
          -3.312e+01
          -3.304e+01
          -3.230e+01
          -3.272e+01
          -3.276e+01
          -3.119e+01
          -3.118e+01
          -3.055e+01
          -3.062e+01
          -3.562e+01
          -3.224e+01
          -2.008e+01
          -3.397e+01
          -3.410e+01
          -3.012e+01
          -2.874e+01
          -3.091e+01
          -2.813e+01
          -3.246e+01
          -2.930e+01
          -3.287e+01
          -2.933e+01
          -3.554e+01
          -3.506e+01
          -3.571e+01
          -3.079e+01
          -3.436e+01
          -3.289e+01
          -3.658e+01
          -3.956e+01
          -3.764e+01
          -3.166e+01
          -3.459e+01
          -3.009e+01
          -4.089e+01
          -3.599e+01
          -4.532e+01
          -2.730e+01
          -2.223e+01
          -3.896e+01
          -4.305e+01
          -3.417e+01
          -2.567e+01
          -2.442e+01
          -4.297e+01
          -4.401e+01
          -4.126e+01
          -1.839e+01
          -1.430e+01
          -4.336e+01
          -4.242e+01
          -1.620e+01
          -4.186e+01
          -4.310e+01
          -2.308e+01
          -3.727e+01
          -3.065e+01
          -4.287e+01
          -2.403e+01
          -2.970e+01
          -4.176e+01
          -2.450e+01
          -2.840e+01
          -4.733e+01
          -1.330e+01
          -2.594e+01
          -4.595e+01
          -4.551e+01
          -1.284e+01
          -1.236e+01
          -4.769e+01
          -4.567e+01
          -1.309e+01
          -1.226e+01
          -4.734e+01
          -5.014e+01
          -1.380e+01
          -2.111e+01
          -1.659e+01
          -4.384e+01
          -4.558e+01
          -4.703e+01
          -3.219e+01
          -2.842e+01
          -4.441e+01
          -4.633e+01
          -4.959e+01
          -3.054e+01
          -3.158e+01
          -2.527e+01
          -4.494e+01
          -4.585e+01
          -4.365e+01
          -2.693e+01
          -3.027e+01
          -2.759e+01
          -2.821e+01
          -4.020e+01
          -4.201e+01
          -4.772e+01
          -5.081e+01
          -2.711e+01
          -2.413e+01
          -2.475e+01
          -2.692e+01
          -2.681e+01
          -3.715e+01
          -4.128e+01
          -4.055e+01
          -4.233e+01
          -3.198e+01
          -2.742e+01
          -2.485e+01
          -2.753e+01
          -3.155e+01
          -3.112e+01
          -3.857e+01
          -1.690e+01
          -4.212e+01
          -3.880e+01
          -3.859e+01
          -3.320e+01
          -3.311e+01
          -3.992e+01
          -3.007e+01
          -3.128e+01
          -3.134e+01
          -2.926e+01
          -2.979e+01
          -2.949e+01
          -3.379e+01
          -3.150e+01
          -3.626e+01
          -3.230e+01
          -3.807e+01
          -3.268e+01
          -3.372e+01
          -3.068e+01
          -3.454e+01
          -3.478e+01
          -3.590e+01
          -3.660e+01
          -3.094e+01
          -3.408e+01
          -3.568e+01
          -3.250e+01
          -3.797e+01
          -3.262e+01
          -3.349e+01
          -3.920e+01
          -3.731e+01
          -3.750e+01
          -3.799e+01
          -3.340e+01
          -3.754e+01
          -3.502e+01
          -4.328e+01
          -3.861e+01
          -5.013e+01
          -3.516e+01
          -4.440e+01
          -2.092e+01
          -3.576e+01
          -1.856e+01
          -4.525e+01
          -1.822e+01
          -1.966e+01
          -9.109e+00
          -9.536e+00
          -9.653e+00
          -4.869e+01
          -1.048e+01
          -1.269e+01
          -3.877e+01
          -3.757e+01
          -3.962e+01
          -1.093e+01
          -2.487e+01
          -4.018e+01
          -4.193e+01
          -3.052e+01
          -3.931e+01
          -3.977e+01
          -3.078e+01
          -4.537e+01
          -3.975e+01
          -3.216e+01
          -4.250e+01
          -4.549e+01
          -2.124e+01
          -4.844e+01
          -4.386e+01
          -2.694e+01
          -1.389e+01
          -5.055e+01
          -4.064e+01
          -1.329e+01
          -2.215e+01
          -4.767e+01
          -5.288e+01
          -1.590e+01
          -1.717e+01
          -2.820e+01
          -4.818e+01
          -4.746e+01
          -2.828e+01
          -3.171e+01
          -4.822e+01
          -5.352e+01
          -4.526e+01
          -2.897e+01
          -2.734e+01
          -5.052e+01
          -5.224e+01
          -2.632e+01
          -2.695e+01
          -2.681e+01
          -4.498e+01
          -4.650e+01
          -4.287e+01
          -2.975e+01
          -2.737e+01
          -2.578e+01
          -2.953e+01
          -4.082e+01
          -4.265e+01
          -4.424e+01
          -2.774e+01
          -2.374e+01
          -2.581e+01
          -3.020e+01
          -2.757e+01
          -4.136e+01
          -3.977e+01
          -3.796e+01
          -3.969e+01
          -4.023e+01
          -2.826e+01
          -3.370e+01
          -2.695e+01
          -3.303e+01
          -3.236e+01
          -3.262e+01
          -4.146e+01
          -3.853e+01
          -3.028e+01
          -3.383e+01
          -3.055e+01
          -3.474e+01
          -3.374e+01
          -3.540e+01
          -3.475e+01
          -3.449e+01
          -3.337e+01
          -3.233e+01
          -3.236e+01
          -3.339e+01
          -3.131e+01
          -3.485e+01
          -9.941e+00
          -3.723e+01
          -3.811e+01
          -3.154e+01
          -3.281e+01
          -3.263e+01
          -3.505e+01
          -3.624e+01
          -3.484e+01
          -3.703e+01
          -3.281e+01
          -3.710e+01
          -4.066e+01
          -3.530e+01
          -3.377e+01
          -3.704e+01
          -3.127e+01
          -2.863e+01
          -3.947e+01
          -4.024e+01
          -3.196e+01
          -2.821e+01
          -3.696e+01
          -4.225e+01
          -4.005e+01
          -3.496e+01
          -3.650e+01
          -8.330e+00
          -1.902e+01
          -7.564e+00
          -1.093e+01
          -1.749e+01
          -8.769e+00
          -4.216e+01
          -3.912e+01
          -4.012e+01
          -9.173e+00
          -3.940e+01
          -3.602e+01
          -8.871e+00
          -4.130e+01
          -2.563e+01
          -1.129e+01
          -1.749e+01
          -4.206e+01
          -3.186e+01
          -4.348e+01
          -4.695e+01
          -5.189e+01
          -1.822e+01
          -3.265e+01
          -3.478e+01
          -4.137e+01
          -4.741e+01
          -3.915e+01
          -3.653e+01
          -4.020e+01
          -4.109e+01
          -2.736e+01
          -2.535e+01
          -2.876e+01
          -4.159e+01
          -2.651e+01
          -2.688e+01
          -3.953e+01
          -3.629e+01
          -2.481e+01
          -5.214e+01
          -5.048e+01
          -2.842e+01
          -2.761e+01
          -4.743e+01
          -5.349e+01
          -2.624e+01
          -2.852e+01
          -2.416e+01
          -4.921e+01
          -5.183e+01
          -2.853e+01
          -2.954e+01
          -4.980e+01
          -4.627e+01
          -4.784e+01
          -2.964e+01
          -2.804e+01
          -4.782e+01
          -4.926e+01
          -5.345e+01
          -3.300e+01
          -2.612e+01
          -2.842e+01
          -4.553e+01
          -4.341e+01
          -4.277e+01
          -2.905e+01
          -2.851e+01
          -2.651e+01
          -4.053e+01
          -4.197e+01
          -4.590e+01
          -4.298e+01
          -2.540e+01
          -3.429e+01
          -3.046e+01
          -2.717e+01
          -2.985e+01
          -3.346e+01
          -3.184e+01
          -3.497e+01
          -3.661e+01
          -3.737e+01
          -4.171e+01
          -3.631e+01
          -3.051e+01
          -3.170e+01
          -3.396e+01
          -3.255e+01
          -3.489e+01
          -3.186e+01
          -3.209e+01
          -3.143e+01
          -2.857e+01
          -2.931e+01
          -3.512e+01
          -3.447e+01
          -3.360e+01
          -3.329e+01
          -3.119e+01
          -3.280e+01
          -4.096e+00
          -6.323e+00
          -6.791e+00
          -8.062e+00
          -2.662e+01
          -3.544e+01
          -3.297e+01
          -3.539e+01
          -6.704e+00
          -5.214e+00
          -3.664e+01
          -3.552e+01
          -3.807e+01