<?xml version="1.0"?>
<VTKFile type="UnstructuredGrid" version="0.1" byte_order="LittleEndian" compressor="vtkZLibDataCompressor">
  <UnstructuredGrid>
    <Piece NumberOfPoints="2940" NumberOfCells="5876">
      <Points>
        <DataArray type="Float32" NumberOfComponents="3" format="ascii">
          -1.049e+02 -3.414e+02 -1.700e+03
          -1.375e+02 -4.577e+02 -1.671e+03
          -2.274e+02 -4.094e+02 -1.671e+03
          2.703e+01 -3.469e+02 -1.701e+03
          -2.662e+01 -4.481e+02 -1.678e+03
          1.432e+02 -3.259e+02 -1.700e+03
          9.617e+01 -4.436e+02 -1.676e+03
          2.135e+02 -4.370e+02 -1.667e+03
          -2.167e+02 -2.895e+02 -1.698e+03
          -3.286e+02 -3.578e+02 -1.668e+03
          -3.265e+02 -2.372e+02 -1.690e+03
          -1.159e+02 -2.126e+02 -1.719e+03
          -7.311e+00 -2.510e+02 -1.717e+03
          1.096e+02 -2.185e+02 -1.719e+03
          3.126e+02 -2.152e+02 -1.695e+03
          2.511e+02 -3.208e+02 -1.689e+03
          3.625e+02 -3.293e+02 -1.666e+03
          -3.359e+02 -1.118e+02 -1.701e+03
          -4.364e+02 -2.033e+02 -1.668e+03
          -4.638e+02 -1.026e+02 -1.670e+03
          -2.238e+02 -1.613e+02 -1.713e+03
          -1.117e+02 -8.756e+01 -1.731e+03
          -9.251e-01 -1.375e+02 -1.731e+03
          1.083e+02 -9.058e+01 -1.731e+03
          2.141e+02 -1.624e+02 -1.716e+03
          3.291e+02 -9.103e+01 -1.702e+03
          4.316e+02 -2.215e+02 -1.668e+03
          4.401e+02 -1.110e+02 -1.675e+03
          -3.227e+02 1.824e+01 -1.706e+03
          -4.203e+02 -1.486e+01 -1.685e+03
          -2.215e+02 -3.826e+01 -1.722e+03
          -1.151e+02 4.067e+01 -1.732e+03
          -3.383e+00 -1.181e+01 -1.736e+03
          1.087e+02 3.086e+01 -1.731e+03
          2.197e+02 -3.200e+01 -1.721e+03
          3.224e+02 3.998e+01 -1.707e+03
          4.345e+02 1.510e+00 -1.683e+03
          -3.525e+02 1.309e+02 -1.695e+03
          -4.582e+02 7.894e+01 -1.675e+03
          -2.289e+02 9.182e+01 -1.719e+03
          -1.332e+02 1.665e+02 -1.724e+03
          -8.519e+00 1.184e+02 -1.731e+03
          1.130e+02 1.383e+02 -1.729e+03
          2.276e+02 9.885e+01 -1.720e+03
          3.212e+02 1.901e+02 -1.697e+03
          4.135e+02 1.131e+02 -1.684e+03
          -4.677e+02 1.939e+02 -1.661e+03
          -3.586e+02 2.466e+02 -1.682e+03
          -2.534e+02 2.128e+02 -1.705e+03
          -1.823e+02 2.931e+02 -1.703e+03
          -5.374e+01 2.454e+02 -1.719e+03
          6.606e+01 2.358e+02 -1.719e+03
          2.007e+02 2.211e+02 -1.711e+03
          3.826e+02 3.091e+02 -1.666e+03
          4.506e+02 2.124e+02 -1.664e+03
          -3.082e+02 3.459e+02 -1.674e+03
          -2.183e+02 4.136e+02 -1.673e+03
          -9.415e+01 3.618e+02 -1.694e+03
          2.533e+01 3.470e+02 -1.701e+03
          1.478e+02 3.319e+02 -1.698e+03
          2.145e+02 4.337e+02 -1.668e+03
          2.708e+02 3.167e+02 -1.686e+03
          -1.331e+02 4.743e+02 -1.665e+03
          -1.919e+01 4.599e+02 -1.673e+03
          9.711e+01 4.469e+02 -1.677e+03
          -3.315e+02 -5.946e+02 -1.597e+03
          -3.356e+02 -7.366e+02 -1.534e+03
          -4.161e+02 -6.625e+02 -1.550e+03
          -2.580e+02 -6.604e+02 -1.586e+03
          -2.095e+02 -7.552e+02 -1.547e+03
          -1.477e+02 -6.519e+02 -1.602e+03
          -9.084e+01 -7.512e+02 -1.558e+03
          -2.548e+01 -6.558e+02 -1.607e+03
          3.027e+01 -7.523e+02 -1.562e+03
          9.363e+01 -6.500e+02 -1.607e+03
          1.475e+02 -7.479e+02 -1.559e+03
          2.122e+02 -6.388e+02 -1.598e+03
          2.563e+02 -7.330e+02 -1.552e+03
          3.370e+02 -6.494e+02 -1.575e+03
          3.481e+02 -7.684e+02 -1.517e+03
          4.410e+02 -6.871e+02 -1.532e+03
          -5.271e+02 -5.038e+02 -1.575e+03
          -5.267e+02 -6.357e+02 -1.526e+03
          -6.124e+02 -5.604e+02 -1.525e+03
          -4.349e+02 -5.514e+02 -1.587e+03
          -2.174e+02 -5.453e+02 -1.636e+03
          -8.891e+01 -5.582e+02 -1.642e+03
          3.330e+01 -5.507e+02 -1.648e+03
          1.570e+02 -5.443e+02 -1.642e+03
          2.831e+02 -5.439e+02 -1.622e+03
          4.064e+02 -5.616e+02 -1.594e+03
          5.085e+02 -5.099e+02 -1.581e+03
          5.206e+02 -6.221e+02 -1.537e+03
          6.058e+02 -5.321e+02 -1.539e+03
          -6.402e+02 -3.332e+02 -1.579e+03
          -6.343e+02 -4.503e+02 -1.552e+03
          -7.311e+02 -4.114e+02 -1.519e+03
          -5.351e+02 -3.852e+02 -1.605e+03
          -4.272e+02 -4.348e+02 -1.626e+03
          -3.229e+02 -4.833e+02 -1.636e+03
          3.262e+02 -4.410e+02 -1.645e+03
          4.336e+02 -4.388e+02 -1.624e+03
          5.624e+02 -4.050e+02 -1.590e+03
          6.523e+02 -3.274e+02 -1.577e+03
          6.718e+02 -4.431e+02 -1.540e+03
          7.585e+02 -3.661e+02 -1.521e+03
          -6.517e+02 -2.127e+02 -1.595e+03
          -7.419e+02 -2.870e+02 -1.543e+03
          -5.432e+02 -2.637e+02 -1.628e+03
          -4.351e+02 -3.167e+02 -1.651e+03
          4.726e+02 -3.347e+02 -1.637e+03
          5.533e+02 -2.700e+02 -1.624e+03
          6.536e+02 -2.085e+02 -1.596e+03
          7.557e+02 -2.609e+02 -1.544e+03
          -6.539e+02 -8.419e+01 -1.607e+03
          -7.481e+02 -1.598e+02 -1.558e+03
          -5.596e+02 -1.446e+02 -1.639e+03
          5.450e+02 -1.553e+02 -1.643e+03
          6.457e+02 -9.075e+01 -1.610e+03
          7.504e+02 -1.426e+02 -1.561e+03
          -6.542e+02 3.722e+01 -1.607e+03
          -7.549e+02 -3.485e+01 -1.562e+03
          -5.505e+02 -1.176e+01 -1.649e+03
          5.423e+02 -2.982e+01 -1.649e+03
          6.406e+02 2.914e+01 -1.615e+03
          7.453e+02 -2.622e+01 -1.569e+03
          -6.605e+02 1.657e+02 -1.596e+03
          -7.528e+02 8.713e+01 -1.562e+03
          -5.643e+02 1.185e+02 -1.638e+03
          5.315e+02 9.675e+01 -1.651e+03
          6.462e+02 1.415e+02 -1.607e+03
          7.462e+02 8.906e+01 -1.568e+03
          -6.656e+02 2.903e+02 -1.575e+03
          -7.555e+02 2.180e+02 -1.546e+03
          -5.652e+02 2.515e+02 -1.621e+03
          -4.428e+02 3.107e+02 -1.649e+03
          4.999e+02 3.254e+02 -1.629e+03
          5.604e+02 2.192e+02 -1.631e+03
          6.688e+02 2.536e+02 -1.581e+03
          7.565e+02 2.061e+02 -1.551e+03
          -6.245e+02 3.950e+02 -1.570e+03
          -7.530e+02 3.542e+02 -1.522e+03
          -5.299e+02 3.667e+02 -1.612e+03
          -4.112e+02 4.200e+02 -1.634e+03
          -3.135e+02 4.811e+02 -1.640e+03
          3.290e+02 4.265e+02 -1.650e+03
          4.394e+02 4.251e+02 -1.626e+03
          5.540e+02 4.388e+02 -1.588e+03
          6.120e+02 3.368e+02 -1.593e+03
          7.435e+02 3.384e+02 -1.536e+03
          -6.998e+02 4.551e+02 -1.522e+03
          -6.131e+02 5.274e+02 -1.535e+03
          -5.223e+02 4.809e+02 -1.584e+03
          -4.282e+02 5.360e+02 -1.594e+03
          -2.167e+02 5.526e+02 -1.632e+03
          -8.607e+01 5.709e+02 -1.639e+03
          3.550e+01 5.602e+02 -1.645e+03
          1.554e+02 5.472e+02 -1.640e+03
          2.740e+02 5.388e+02 -1.628e+03
          3.906e+02 5.359e+02 -1.605e+03
          5.055e+02 5.318e+02 -1.577e+03
          6.350e+02 5.317e+02 -1.527e+03
          6.659e+02 4.281e+02 -1.548e+03
          -5.268e+02 6.113e+02 -1.537e+03
          -4.260e+02 6.539e+02 -1.552e+03
          -3.334e+02 5.998e+02 -1.596e+03
          -2.546e+02 6.636e+02 -1.584e+03
          -1.460e+02 6.618e+02 -1.599e+03
          -2.300e+01 6.660e+02 -1.603e+03
          9.764e+01 6.564e+02 -1.605e+03
          2.177e+02 6.466e+02 -1.597e+03
          3.369e+02 6.407e+02 -1.579e+03
          4.542e+02 6.409e+02 -1.551e+03
          5.603e+02 6.205e+02 -1.523e+03
          -3.341e+02 7.361e+02 -1.536e+03
          -2.103e+02 7.630e+02 -1.545e+03
          -8.915e+01 7.616e+02 -1.558e+03
          3.668e+01 7.597e+02 -1.562e+03
          1.607e+02 7.500e+02 -1.559e+03
          2.848e+02 7.412e+02 -1.545e+03
          4.114e+02 7.339e+02 -1.520e+03
          -2.097e+02 -9.336e+02 -1.445e+03
          -2.749e+02 -1.018e+03 -1.377e+03
          -3.259e+02 -9.261e+02 -1.430e+03
          -8.806e+01 -9.384e+02 -1.454e+03
          -1.530e+02 -1.024e+03 -1.392e+03
          3.250e+01 -9.364e+02 -1.460e+03
          -3.016e+01 -1.027e+03 -1.400e+03
          1.530e+02 -9.304e+02 -1.457e+03
          9.160e+01 -1.021e+03 -1.398e+03
          2.675e+02 -9.286e+02 -1.440e+03
          2.124e+02 -1.018e+03 -1.391e+03
          3.404e+02 -9.940e+02 -1.382e+03
          -4.683e+02 -7.493e+02 -1.497e+03
          -5.174e+02 -8.440e+02 -1.426e+03
          -6.142e+02 -8.565e+02 -1.380e+03
          -3.923e+02 -8.269e+02 -1.474e+03
          -4.380e+02 -9.150e+02 -1.411e+03
          -2.737e+02 -8.386e+02 -1.494e+03
          -1.480e+02 -8.480e+02 -1.505e+03
          -2.521e+01 -8.465e+02 -1.512e+03
          1.011e+02 -8.440e+02 -1.512e+03
          2.299e+02 -8.352e+02 -1.502e+03
          3.527e+02 -8.701e+02 -1.459e+03
          4.317e+02 -9.225e+02 -1.404e+03
          4.496e+02 -7.968e+02 -1.474e+03
          5.207e+02 -8.497e+02 -1.422e+03
          6.179e+02 -8.375e+02 -1.389e+03
          -6.469e+02 -6.532e+02 -1.472e+03
          -6.739e+02 -7.633e+02 -1.406e+03
          -7.447e+02 -6.613e+02 -1.421e+03
          -5.747e+02 -7.432e+02 -1.460e+03
          5.562e+02 -7.369e+02 -1.471e+03
          6.296e+02 -6.469e+02 -1.485e+03
          6.745e+02 -7.480e+02 -1.416e+03
          7.420e+02 -6.593e+02 -1.427e+03
          -8.145e+02 -4.739e+02 -1.457e+03
          -8.094e+02 -5.855e+02 -1.418e+03
          -8.988e+02 -5.486e+02 -1.379e+03
          -7.167e+02 -5.396e+02 -1.485e+03
          7.088e+02 -5.551e+02 -1.487e+03
          7.860e+02 -4.603e+02 -1.479e+03
          8.141e+02 -5.613e+02 -1.430e+03
          9.087e+02 -5.413e+02 -1.381e+03
          -8.290e+02 -3.547e+02 -1.482e+03
          -9.108e+02 -4.334e+02 -1.411e+03
          8.570e+02 -3.289e+02 -1.478e+03
          8.840e+02 -4.393e+02 -1.432e+03
          -9.321e+02 -2.007e+02 -1.449e+03
          -9.233e+02 -3.159e+02 -1.434e+03
[...]
      <PointData Scalars="depth (km)">
        <DataArray type="Float32" Name="depth (km)" NumberOfComponents="1" format="ascii">
          -4.243e-01
          4.316e-01
          -1.424e+00
          -5.279e-01
          -5.831e-01
          -2.166e-01
          -7.494e-01
          -2.614e-01
          -8.048e-01
          1.616e-01
          7.151e-02
          -9.197e-01
          -2.148e+00
          -5.661e-01
          7.323e-02
          9.272e-02
          -3.560e-01
          2.736e-01
          -9.259e-01
          -6.169e-01
          -2.159e+00
          -4.455e-02
          -7.408e-01
          -3.808e-01
          -5.804e-01
          -7.531e-01
          2.444e-01
          -1.322e+00
          -3.550e-01
          -3.729e-01
          -9.026e-02
          -6.770e-01
          -8.797e-01
          -2.486e+00
          -2.119e+00
          7.703e-02
          1.488e+00
          -5.971e-01
          1.040e+00
          -6.817e-01
          -1.911e-01
          -1.812e+00
          7.821e-01
          5.485e-01
          4.170e-01
          9.413e-01
          -8.056e-01
          -1.239e-01
          -3.150e-01
          1.835e-01
          -3.100e-01
          -8.961e-01
          -6.880e-01
          -2.131e-01
          -2.645e-02
          -6.403e-01
          1.190e-01
          -2.293e+00
          -5.075e-01
          -4.283e-01
          -1.773e-02
          -2.765e-01
          -1.078e+00
          -2.378e+00
          7.407e-01
          -1.199e+00
          -2.822e+00
          -7.774e-01
          -2.334e-01
          -2.865e+00
          -9.417e-01
          -5.043e+00
          -1.726e+00
          -3.230e+00
          -9.774e-01
          -1.921e+00
          -3.025e+00
          -1.465e+00
          -1.619e-01
          -1.792e+00
          -1.181e+00
          -1.264e+00
          -1.930e+00
          -1.035e+00
          -1.345e+00
          8.765e-01
          -1.609e-01
          4.514e-01
          3.218e-02
          -3.105e+00
          8.701e-01
          2.599e-01
          3.920e-01
          6.765e-01
          -8.868e-01
          -1.080e+00
          -1.600e+00
          -1.967e+00
          -8.754e-01
          -5.097e-01
          -3.084e+00
          -2.829e-01
          -2.476e+00
          6.852e-01
          3.782e-01
          1.080e+00
          -7.188e-01
          -9.154e-01
          -8.217e-01
          -8.374e-01
          -2.599e-01
          -1.099e-01
          -3.788e-01
          1.609e+00
          -2.941e-01
          -1.592e+00
          4.549e-01
          9.258e-01
          -3.548e-02
          6.520e-01
          -2.014e+00
          -1.489e+00
          1.034e+00
          -1.349e+00
          6.994e-02
          3.846e-01
          -1.666e+00
          -1.169e+00
          -6.791e-01
          3.866e-01
          3.662e-01
          2.024e+00
          -2.494e+00
          -2.333e+00
          -2.015e+00
          -1.940e+00
          -2.104e+00
          1.116e+00
          -1.711e+00
          1.058e+00
          -1.746e+00
          -2.307e+00
          -1.049e+00
          -7.468e-01
          6.485e-02
          -1.033e+00
          -3.239e-01
          7.742e-01
          1.846e+00
          2.884e+00
          -1.001e+00
          -1.992e+00
          -9.995e-01
          -1.608e+00
          -1.611e-01
          4.154e-01
          6.329e-01
          -1.614e+00
          -1.518e-01
          -6.791e-01
          1.764e+00
          -2.189e-01
          1.708e+00
          -1.245e+00
          -8.115e-02
          -1.939e-01
          -5.571e-01
          -5.233e-01
          -1.175e+00
          -3.927e-01
          -4.603e-01
          -1.357e-01
          1.265e+00
          4.071e-01
          -1.829e+00
          -1.462e+00
          -8.659e-01
          3.605e-01
          1.865e-01
          2.755e-01
          2.354e-01
          -3.749e+00
          -2.388e+00
          -2.609e+00
          -4.222e+00
          -2.543e+00
          -2.391e+00
          -6.750e-01
          -1.407e+00
          -3.036e+00
          -3.121e+00
          -1.238e-01
          -1.241e+00
          9.657e-01
          -9.603e-01
          -1.116e+00
          -2.330e+00
          5.508e-01
          -1.763e+00
          -3.778e+00
          -3.851e+00
          -2.241e+00
          -3.220e+00
          -1.748e+00
          -2.399e+00
          -2.005e+00
          -9.656e-01
          -1.288e+00
          -1.474e+00
          -1.016e+00
          -1.844e+00
          -1.190e+00
          -4.448e-01
          4.142e-01
          6.136e-01
          1.256e+00
          -2.245e+00
          -2.364e+00
          -2.224e+00
          -1.904e+00
          1.440e+00
          1.896e-01
          1.162e+00
          2.197e+00
          -2.001e+00
          -2.552e+00
          2.366e+00
          1.781e+00
          -2.566e+00
          -2.514e+00
          -2.138e+00
          -2.109e+00
          1.597e+00
          3.649e+00
          3.265e+00
          -1.186e+00
          -2.351e+00
          -2.727e+00
          -1.338e+00
          1.500e+00
          1.901e+00
          2.112e+00
          -2.421e+00
          -2.230e+00
          -2.308e+00
          3.865e-01
          1.126e+00
          1.272e+00
          -2.289e+00
          -1.722e+00
          -2.220e+00
          8.721e-01
          1.640e+00
          2.149e+00
          -2.434e+00
          -1.170e+00
          -2.470e+00
          2.743e+00
          1.822e+00
          2.180e+00
          -2.482e+00
          -2.518e+00
          -2.385e+00
          2.631e+00
          1.628e+00
          -1.322e+00
          -2.301e+00
          -2.031e+00
          -2.353e+00
          -5.682e-01
          -6.933e-01
          -1.403e-02
          -2.337e+00
          -2.314e+00
          -3.970e-01
          -2.112e+00
          -6.639e-01
          4.073e+00
          3.200e+00
          9.850e-01
          -2.136e+00
          -2.044e+00
          -1.353e+00
          -1.228e+00
          -1.365e+00
          -8.562e-01
          -4.357e-01
          -2.771e+00
          -1.153e+00
          1.031e+00
          9.805e-01
          -1.908e+00
          2.031e+00
          -1.672e+00
          -1.936e+00
          -1.628e+00
          -1.002e+00
          -2.306e+00
          1.346e+00
          -1.359e+00
          1.103e+00
          1.017e+00
          -4.223e-01
          -5.256e-01
          -1.430e+00
          3.023e-01
          -1.569e+00
          3.630e-01
          1.251e+00
          -7.636e-02
          -9.255e-01
          6.774e-01
          -2.702e+00
          -9.154e-01
          -2.256e+00
          3.605e-01
          -1.334e+00
          1.197e+00
          6.606e-03
          4.719e-01
          4.288e-01
          1.147e+00
          6.093e-01
          5.200e-01
          -1.019e+00
          -1.458e+00
          -1.204e+00
          -1.385e+00
          -7.214e-01
          -1.028e+00
          -8.532e-01
          -1.067e+00
          -1.503e+00
          2.566e-01
          8.574e-01
          8.478e-01
          -1.176e+00
          -2.672e+00
          -1.075e+00
          -6.391e-01
          -1.769e+00
          -4.954e-01
          7.677e-01
          -1.288e-01
          8.208e-01
          -2.002e+00
          -1.598e+00
          -1.757e+00
          -2.161e+00
          8.460e-01
          6.441e-01
          1.289e+00
          1.881e+00
          -2.223e+00
          -1.093e+00
          3.231e+00
          -1.647e+00
          -1.247e+00
          -1.927e+00
          -1.014e+00
          -2.177e+00
          2.094e+00
          -5.482e-01
          2.096e+00
          3.447e+00
          -2.388e+00
          -1.667e+00
          9.460e-03
          2.658e+00
          -2.230e+00
          -2.271e+00
          1.503e+00
          3.320e+00
          -1.478e+00
          -1.676e+00
          1.006e+00
          1.455e+00
          -1.273e+00
          -2.445e+00
          3.772e+00
          -1.022e+00
          -2.792e+00
          -2.595e+00
          2.815e+00
          2.266e+00
          -2.716e+00
          -2.528e+00
          -2.673e+00
          3.436e+00
          3.970e-01
          2.464e+00
          -2.493e+00
          -2.009e+00
          -8.168e-01
          3.091e+00
          2.279e+00
          2.512e+00
          -1.771e+00
          -2.674e+00
          -3.044e+00
          3.819e+00
          3.219e+00
          2.404e+00
          4.925e-01
          -7.776e-01
          -2.199e+00
          -2.198e+00
          5.521e-01
          -1.171e+00
          1.961e-02
          3.422e+00
          -1.981e+00
          -2.042e+00
          -2.072e+00
          -2.234e+00
          -2.094e+00
          6.319e-01
          -2.043e-01
          -2.546e+00
          8.848e-01
          2.024e+00
          -2.199e+00
          -2.277e+00
          -1.890e+00
          -1.977e+00
          -2.152e-01
          -1.749e+00
          4.288e-01
          4.220e-01
          7.855e-01
          1.973e+00
          2.478e+00
          1.962e+00
          2.069e+00
          -1.947e+00
          -1.659e+00
          -1.411e+00
          -2.792e-01
          5.002e-01
          3.884e-01
          1.496e+00
          -1.246e+00
          -8.866e-01
          -1.383e+00
          -2.603e-02
          1.238e-01
          9.137e-01
          3.654e-01
          4.806e-01
          -1.964e+00
          -9.333e-02
          -5.226e-01
          -2.752e+00
          -6.460e-01
          5.074e-01
          -8.941e-02
          1.046e+00
          -2.273e+00
          -1.773e+00
          -1.072e+00
          -1.597e+00
          -1.050e+00
          2.818e-01
          1.025e-02
          -2.000e+00
          5.204e-01
          1.009e+00
          -1.321e+00
          -1.278e+00
          -7.672e-01
          -1.500e-01
          -2.848e-01
          1.399e+00
          -1.463e+00
          -4.769e-01
          -1.333e+00
          -1.871e+00
          3.270e-01
          -1.480e+00
          -1.044e+00
          -1.476e+00
          -1.647e+00
          3.234e+00
          -1.368e+00
          4.160e+00
          -1.878e+00
          -1.227e+00
          4.852e-01
          6.266e-02
          -1.418e+00
          -1.593e+00
          -2.508e+00
          2.879e+00
          3.034e+00
          2.142e+00
          -2.207e+00
          1.517e+00
          1.612e+00
          3.761e-01
          -2.164e+00
          -2.037e+00
          1.029e+00
          1.791e+00
          -2.568e+00
          -2.478e+00
          2.024e+00
          2.724e+00
          -2.492e+00
          -2.358e+00
          2.924e+00
          2.851e+00
          -2.503e+00
          -2.371e+00
          2.561e+00
          2.538e+00
          -2.295e+00
          -2.215e+00
          1.938e+00
          3.997e+00
          -2.113e+00
          -2.336e+00
          -2.285e+00
          3.545e+00
          2.992e+00
          4.713e+00
          -2.416e+00
          -2.150e+00
          7.398e-01
          1.192e+00
          -2.197e+00
          -8.003e-01
          -1.670e+00
          3.889e+00
          2.715e+00
          2.093e+00
          -2.165e+00
          -2.363e+00
          -2.285e+00
          2.518e+00
          4.143e+00
          2.753e+00
          -2.196e+00
          -2.255e+00
          -2.097e+00
          -2.280e+00
          -5.319e-01
          1.476e+00
          4.012e+00
          3.298e+00
          -2.027e+00
          -1.939e+00
          -1.896e+00
          -2.157e+00
          -1.464e+00
          -4.701e-01
          -7.344e-01
          3.194e-01
          5.977e-01
          1.917e+00
          1.444e+00
          3.718e+00
          -5.042e-02
          -1.903e+00
          -1.711e+00
          -1.407e+00
          -2.850e-01
          1.412e+00
          1.908e+00
          1.641e+00
          -2.225e+00
          -1.166e+00
          -2.362e+00
          5.796e-01
          -9.237e-01
          -4.535e-01
          -5.871e-01
          -3.103e-02
          -1.308e+00
          -3.265e-01
          -7.937e-01
          -8.508e-02
          1.255e-01
          -1.276e+00
          -4.150e-01
          -1.118e+00
          -8.894e-01
          -1.104e+00
          -1.965e+00
          -1.689e-01
          -1.394e+00
          -8.938e-02
          4.362e-01
          2.665e-01
          -8.145e-01
          -7.843e-01
          -1.517e+00
          1.158e+00
          9.854e-01
          1.148e+00
          -7.396e-01
          -3.939e-01
          -5.412e-01
          2.399e+00
          1.625e+00
          3.360e+00
          -8.597e-01
          -8.265e-01
          -1.128e+00
          2.835e+00
          1.992e+00
          2.541e+00
          -2.639e+00
          -1.516e+00
          -2.607e+00
          1.956e+00
          2.817e+00
          1.974e+00
          -2.025e+00
          -2.432e+00
          2.949e+00
          9.458e-01
          -2.278e+00
          2.740e+00
          -2.343e-01
          -2.409e+00
          -2.241e+00
          2.855e+00
          3.014e+00
          2.884e+00
          -2.298e+00
          -2.159e+00
          1.849e+00
          3.129e+00
          -2.366e+00
          -2.050e+00
          3.469e+00
          5.114e+00
          -2.199e+00
          -2.258e+00
          3.352e+00
          2.802e+00
          -2.236e+00
          -1.956e+00
          4.155e+00
          3.790e+00
          -2.211e+00
          -2.126e+00
          1.868e+00
          3.390e+00
          -1.964e+00
          -2.100e+00
          4.002e+00
          3.963e+00
          -2.096e+00
          -1.850e+00
          3.321e+00
          4.367e+00
          -1.679e+00
          -2.035e+00
          -1.786e+00
          3.992e-01
          4.233e+00
          4.879e+00
          -1.930e+00
          -1.721e+00
          -1.889e+00
          4.815e+00
          3.144e+00
          5.907e+00
          -2.002e+00
          -2.180e+00
          -2.053e+00
          3.534e+00
          4.554e+00
          1.186e+00
          -1.853e+00
          -2.071e+00
          -2.129e+00
          -2.048e+00
          1.594e+00
          3.096e+00
          2.202e+00
          3.042e+00
          -2.152e+00
          -2.115e+00
          -2.041e+00
          -1.652e+00
          -1.473e+00
          -9.467e-01
          -3.682e-01
          -1.740e+00
          -1.368e+00
          2.011e-01
          2.287e+00
          1.522e+00
          1.417e+00
          -1.491e+00
          -1.122e+00
          8.265e-01
          -7.636e-01
          -4.869e-01
          -3.194e-01
          -5.908e-01
          -1.081e-01
          -3.143e+00
          -9.321e-01
          -1.118e+00
          -9.784e-01
          -1.674e+00
          3.643e-01
          -4.762e-02
          -1.389e+00
          5.542e-02
          1.178e-01
          -3.949e-01
          -2.996e+00
          -1.555e+00
          -1.731e+00
          -2.526e+00
          -7.947e-01
          1.020e+00
          2.362e-01
          4.990e-01
          5.111e-01
          -2.836e-01
          -9.780e-01
          -9.470e-01
          2.903e-01
          1.012e+00
          2.259e+00
          -1.213e-01
          -1.438e-01
          -5.989e-01
          2.513e+00
          3.380e+00
          6.235e-01
          -2.718e-01
          -5.185e-01
          -2.463e+00
          -2.397e+00
          -1.656e+00
          -2.867e+00
          -2.760e+00
          -1.264e+00
          -2.356e+00
          -2.461e+00
          -2.337e+00
          1.897e+00
          1.029e+00
          2.203e+00
          -2.416e+00
          -2.388e+00
          2.755e+00
          8.338e-01
          -2.450e+00
          2.280e+00
          -1.976e+00
          4.482e+00
          -1.675e+00
          5.771e+00
          3.318e+00
          1.182e+00
          -2.713e+00
          3.754e+00
          3.534e+00
          -1.986e+00
          2.708e+00
          -1.907e+00
          -2.041e+00
          2.028e-01
          3.706e+00
          -1.681e+00
          -1.568e+00
          3.863e+00
          2.767e+00
          -1.518e+00
          -1.603e+00
          5.100e+00
          4.781e+00
          -1.363e+00
          -1.626e+00
          5.491e+00
          4.726e+00
          -1.485e+00
          -1.741e+00
          -1.263e+00
          3.641e+00
          4.502e+00
          1.046e+00
          -1.639e+00
          -2.017e+00
          -1.120e+00
          7.469e-01
          4.537e+00
          1.252e+00
          -2.000e+00
          -1.988e+00
          -1.979e+00
          2.062e+00
          2.591e+00
          2.919e+00
          -1.991e+00
          -2.157e+00
          -1.893e+00
          -1.950e+00
          -1.722e+00
          2.054e+00
          1.142e+00
          1.040e+00
          2.342e+00
          2.140e+00
          -1.651e+00
          -1.205e+00
          -1.265e+00
          -3.836e-02
          -3.478e-01
          -1.892e-01
          1.319e+00
          1.182e+00
          1.591e+00
          2.762e-01
          -1.083e+00
          1.120e+00
          1.131e-01
          -4.035e-01
          -2.608e-01
          -3.269e+00
          -1.694e+00
          -4.200e-01
          -2.235e+00
          1.846e-01
          -3.648e-01
          -1.241e+00
          -7.237e-01
          -1.167e+00
          -2.309e+00
          -1.853e+00
          -1.124e+00
          -2.711e+00
          -7.720e-01
          2.998e-02
          1.283e-01
          -1.865e-01
          4.215e-01
          -1.048e+00
          -3.254e+00
          6.498e-03
          -9.439e-01
          -8.900e-01
          1.016e+00
          1.957e+00
          -1.634e+00
          -4.817e-01
          -1.126e+00
          -7.547e-01
          2.487e+00
          2.666e+00
          4.859e+00
          -4.174e-01
          -9.143e-01
          -1.247e+00
          1.622e+00
          3.731e+00
          -3.806e-01
          -1.056e+00
          -2.726e+00
          -2.413e+00
          -2.729e+00
          -2.568e+00
          2.011e+00
          -9.921e-01
          5.891e-01
          -2.336e+00
          3.681e-01
          -2.267e+00
          -2.401e+00
          -2.335e+00
          3.477e+00
          3.401e+00
          1.443e+00
          -1.173e+00
          -2.209e+00
          -1.257e+00
          1.481e+00
          -1.384e+00
          6.276e-01
          1.420e+00
          2.429e-01
          -1.546e+00
          1.134e+00
          1.069e+00
          -3.342e-01
          -1.564e+00
          -6.873e-01
          4.036e+00
          -1.964e+00
          -1.625e+00
          7.057e-01
          3.713e+00
          -1.998e+00
          -1.784e+00
          2.950e+00
          2.875e+00
          -1.539e+00
          -1.619e+00
          5.003e+00
          4.740e+00
          -1.348e+00
          -1.471e+00
          4.671e+00
          7.044e+00
          -9.445e-01
          -1.114e+00
          4.809e+00
          5.395e+00
          -1.080e+00
          -1.247e+00
          5.415e+00
          5.498e+00
          -1.282e+00
          -1.104e+00
          -1.247e+00
          3.470e+00
          2.311e+00
          4.082e+00
          -1.465e+00
          -1.114e+00
          -1.442e+00
          2.980e+00
          3.287e+00
          3.649e+00
          -1.756e+00
          -1.817e+00
          -1.854e+00
          -1.958e+00
          1.599e+00
          8.697e-01
          2.827e+00
          2.786e+00
          -2.236e+00
          -1.685e+00
          -8.162e-01
          -1.220e+00
          -1.010e+00
          -4.704e-01
          8.302e-02
          3.986e-01
          1.505e+00
          9.577e-01
          -1.989e+00
          2.527e+00
          2.628e-01
          -1.119e+00
          -8.791e-01
          -4.020e-01
          1.858e-01
          -4.991e-01
          4.034e-01
          1.234e+00
          -1.117e+00
          -1.926e-01
          -3.124e+00
          -1.321e-01