<?xml version="1.0"?>
<VTKFile type="UnstructuredGrid" version="0.1" byte_order="LittleEndian" compressor="vtkZLibDataCompressor">
  <UnstructuredGrid>
    <Piece NumberOfPoints="20898" NumberOfCells="41792">
      <Points>
        <DataArray type="Float32" NumberOfComponents="3" format="ascii">
          -1.036e-02 -1.987e-02 -1.363e-01
          -1.239e-02 -2.291e-02 -1.357e-01
          -8.637e-03 -2.300e-02 -1.360e-01
          -6.579e-03 -2.000e-02 -1.365e-01
          -4.865e-03 -2.311e-02 -1.361e-01
          -2.970e-03 -1.986e-02 -1.367e-01
          -1.205e-03 -2.306e-02 -1.362e-01
          7.292e-04 -1.988e-02 -1.367e-01
          2.483e-03 -2.304e-02 -1.362e-01
          4.307e-03 -1.970e-02 -1.367e-01
          6.102e-03 -2.290e-02 -1.361e-01
          7.861e-03 -1.955e-02 -1.365e-01
          9.730e-03 -2.274e-02 -1.359e-01
          1.143e-02 -1.944e-02 -1.363e-01
          1.335e-02 -2.264e-02 -1.356e-01
          1.497e-02 -1.936e-02 -1.360e-01
          -1.561e-02 -1.661e-02 -1.363e-01
          -2.150e-02 -1.883e-02 -1.352e-01
          -1.780e-02 -1.937e-02 -1.356e-01
          -1.221e-02 -1.676e-02 -1.366e-01
          -1.408e-02 -1.985e-02 -1.360e-01
          -8.298e-03 -1.694e-02 -1.369e-01
          -4.788e-03 -1.664e-02 -1.371e-01
          -1.001e-03 -1.676e-02 -1.371e-01
          2.562e-03 -1.649e-02 -1.371e-01
          6.088e-03 -1.630e-02 -1.371e-01
          9.640e-03 -1.620e-02 -1.369e-01
          1.320e-02 -1.610e-02 -1.366e-01
          1.846e-02 -1.934e-02 -1.355e-01
          1.671e-02 -1.605e-02 -1.362e-01
          2.017e-02 -1.605e-02 -1.357e-01
          -1.706e-02 -1.379e-02 -1.364e-01
          -1.955e-02 -1.618e-02 -1.358e-01
          -1.364e-02 -1.310e-02 -1.369e-01
          -1.020e-02 -1.415e-02 -1.371e-01
          -6.788e-03 -1.339e-02 -1.373e-01
          -2.753e-03 -1.375e-02 -1.374e-01
          8.101e-04 -1.331e-02 -1.375e-01
          4.320e-03 -1.302e-02 -1.375e-01
          7.902e-03 -1.294e-02 -1.373e-01
          1.152e-02 -1.288e-02 -1.371e-01
          1.519e-02 -1.280e-02 -1.367e-01
          2.348e-02 -1.625e-02 -1.352e-01
          1.887e-02 -1.283e-02 -1.363e-01
          2.268e-02 -1.300e-02 -1.357e-01
          -2.018e-02 -9.143e-03 -1.364e-01
          -2.345e-02 -1.119e-02 -1.357e-01
          -2.036e-02 -1.263e-02 -1.361e-01
          -1.688e-02 -1.065e-02 -1.367e-01
          -1.356e-02 -9.433e-03 -1.372e-01
          -1.025e-02 -1.103e-02 -1.373e-01
          -7.173e-03 -9.469e-03 -1.376e-01
          -4.285e-03 -1.096e-02 -1.377e-01
          -8.557e-04 -1.017e-02 -1.378e-01
          2.516e-03 -9.725e-03 -1.378e-01
          6.089e-03 -9.660e-03 -1.377e-01
          9.713e-03 -9.634e-03 -1.375e-01
          1.334e-02 -9.618e-03 -1.372e-01
          1.698e-02 -9.540e-03 -1.368e-01
          2.043e-02 -9.677e-03 -1.363e-01
          -2.008e-02 -5.605e-03 -1.366e-01
          -2.338e-02 -7.522e-03 -1.360e-01
          -1.681e-02 -7.284e-03 -1.369e-01
          -1.353e-02 -5.756e-03 -1.374e-01
          -1.036e-02 -7.501e-03 -1.376e-01
          -6.925e-03 -6.017e-03 -1.379e-01
          -3.491e-03 -7.648e-03 -1.379e-01
          2.241e-04 -6.535e-03 -1.380e-01
          4.082e-03 -6.424e-03 -1.379e-01
          7.874e-03 -6.404e-03 -1.378e-01
          1.161e-02 -6.387e-03 -1.375e-01
          1.532e-02 -6.408e-03 -1.372e-01
          1.913e-02 -6.258e-03 -1.367e-01
          2.368e-02 -9.762e-03 -1.358e-01
          2.259e-02 -6.399e-03 -1.361e-01
          2.627e-02 -7.756e-03 -1.354e-01
          -1.993e-02 -2.010e-03 -1.367e-01
          -2.322e-02 -3.853e-03 -1.361e-01
          -1.674e-02 -3.789e-03 -1.371e-01
          -1.338e-02 -2.197e-03 -1.375e-01
          -1.012e-02 -4.020e-03 -1.377e-01
          -6.695e-03 -2.458e-03 -1.380e-01
          -3.538e-03 -4.453e-03 -1.380e-01
          -5.474e-04 -3.097e-03 -1.381e-01
          2.660e-03 -3.159e-03 -1.381e-01
          6.260e-03 -3.189e-03 -1.380e-01
          9.946e-03 -3.175e-03 -1.378e-01
          1.366e-02 -3.188e-03 -1.374e-01
          1.741e-02 -3.347e-03 -1.370e-01
          2.149e-02 -2.950e-03 -1.364e-01
          2.529e-02 -4.241e-03 -1.358e-01
          -1.978e-02 1.596e-03 -1.367e-01
          -2.305e-02 -1.779e-04 -1.362e-01
          -1.658e-02 -2.544e-04 -1.372e-01
          -1.323e-02 1.378e-03 -1.375e-01
          -1.002e-02 -5.348e-04 -1.378e-01
          -6.695e-03 1.043e-03 -1.380e-01
          -3.301e-03 -7.779e-04 -1.381e-01
          4.596e-04 2.988e-04 -1.382e-01
          4.341e-03 5.122e-05 -1.381e-01
          8.132e-03 4.379e-05 -1.379e-01
          1.184e-02 6.531e-05 -1.376e-01
          1.546e-02 2.174e-05 -1.373e-01
          1.889e-02 -3.663e-04 -1.369e-01
          2.167e-02 1.081e-03 -1.364e-01
          2.473e-02 -7.984e-04 -1.359e-01
          -1.964e-02 5.236e-03 -1.367e-01
          -2.288e-02 3.504e-03 -1.362e-01
          -1.648e-02 3.302e-03 -1.371e-01
          -1.320e-02 4.915e-03 -1.374e-01
          -9.847e-03 3.029e-03 -1.378e-01
          -6.381e-03 4.605e-03 -1.379e-01
          -3.321e-03 2.514e-03 -1.381e-01
          -3.736e-04 3.664e-03 -1.381e-01
          3.034e-03 3.314e-03 -1.381e-01
          6.624e-03 3.253e-03 -1.380e-01
          1.032e-02 3.278e-03 -1.377e-01
          1.407e-02 3.284e-03 -1.374e-01
          1.791e-02 3.080e-03 -1.370e-01
          2.153e-02 4.546e-03 -1.364e-01
          2.483e-02 2.933e-03 -1.359e-01
          -1.953e-02 8.901e-03 -1.365e-01
          -2.274e-02 7.196e-03 -1.361e-01
          -1.639e-02 6.913e-03 -1.370e-01
          -1.313e-02 8.516e-03 -1.373e-01
          -9.919e-03 6.471e-03 -1.376e-01
          -6.739e-03 7.951e-03 -1.378e-01
          -2.940e-03 6.326e-03 -1.380e-01
          1.046e-03 6.697e-03 -1.380e-01
          4.764e-03 6.528e-03 -1.379e-01
          8.444e-03 6.505e-03 -1.377e-01
          1.208e-02 6.547e-03 -1.375e-01
          1.561e-02 6.541e-03 -1.371e-01
          1.875e-02 6.543e-03 -1.367e-01
          2.458e-02 6.625e-03 -1.358e-01
          2.145e-02 8.467e-03 -1.362e-01
          -1.938e-02 1.261e-02 -1.362e-01
          -2.257e-02 1.091e-02 -1.359e-01
          -1.632e-02 1.055e-02 -1.368e-01
          -1.314e-02 1.212e-02 -1.370e-01
          -9.874e-03 1.009e-02 -1.374e-01
          -6.655e-03 1.172e-02 -1.375e-01
          -3.878e-03 9.631e-03 -1.378e-01
          -6.372e-04 9.703e-03 -1.378e-01
          3.048e-03 9.789e-03 -1.378e-01
          6.701e-03 9.736e-03 -1.377e-01
          1.038e-02 9.773e-03 -1.374e-01
          1.408e-02 9.866e-03 -1.371e-01
          1.778e-02 1.002e-02 -1.366e-01
          2.132e-02 1.190e-02 -1.360e-01
          -2.236e-02 1.465e-02 -1.355e-01
          -1.619e-02 1.425e-02 -1.365e-01
          -1.917e-02 1.636e-02 -1.358e-01
          -1.301e-02 1.583e-02 -1.366e-01
          -1.000e-02 1.365e-02 -1.371e-01
          -6.743e-03 1.499e-02 -1.372e-01
          -2.954e-03 1.297e-02 -1.375e-01
          8.942e-04 1.288e-02 -1.376e-01
          4.683e-03 1.295e-02 -1.375e-01
          8.352e-03 1.298e-02 -1.373e-01
          1.195e-02 1.308e-02 -1.370e-01
          1.540e-02 1.331e-02 -1.366e-01
          1.850e-02 1.358e-02 -1.362e-01
          1.745e-02 1.696e-02 -1.360e-01
          -1.899e-02 2.011e-02 -1.354e-01
          -1.267e-02 1.949e-02 -1.362e-01
          -1.597e-02 1.799e-02 -1.360e-01
          -9.724e-03 1.727e-02 -1.367e-01
          -6.468e-03 1.875e-02 -1.367e-01
          -3.854e-03 1.624e-02 -1.371e-01
          -5.870e-04 1.609e-02 -1.372e-01
          2.910e-03 1.609e-02 -1.372e-01
          6.509e-03 1.618e-02 -1.371e-01
          1.013e-02 1.628e-02 -1.368e-01
          1.377e-02 1.648e-02 -1.365e-01
          1.487e-02 1.990e-02 -1.359e-01
          -1.256e-02 2.298e-02 -1.357e-01
          -9.238e-03 2.090e-02 -1.363e-01
          -5.498e-03 2.214e-02 -1.363e-01
          -9.278e-03 2.413e-02 -1.357e-01
          -2.853e-03 1.944e-02 -1.368e-01
          7.649e-04 1.931e-02 -1.368e-01
          4.374e-03 1.936e-02 -1.367e-01
          7.955e-03 1.947e-02 -1.365e-01
          5.891e-03 2.262e-02 -1.362e-01
          1.147e-02 1.963e-02 -1.363e-01
          -6.386e-03 2.536e-02 -1.357e-01
          -3.147e-03 2.535e-02 -1.358e-01
          -1.483e-03 2.241e-02 -1.363e-01
          2.250e-03 2.249e-02 -1.363e-01
          -1.388e-02 -3.492e-02 -1.329e-01
          -1.617e-02 -3.809e-02 -1.318e-01
          -1.264e-02 -3.795e-02 -1.322e-01
          -1.020e-02 -3.495e-02 -1.333e-01
          -8.987e-03 -3.798e-02 -1.325e-01
          -6.522e-03 -3.505e-02 -1.335e-01
          -5.324e-03 -3.818e-02 -1.327e-01
          -2.963e-03 -3.528e-02 -1.335e-01
          -1.874e-03 -3.879e-02 -1.326e-01
          1.569e-04 -3.586e-02 -1.334e-01
          1.650e-03 -3.893e-02 -1.325e-01
          3.307e-03 -3.537e-02 -1.335e-01
          4.997e-03 -3.845e-02 -1.326e-01
          6.753e-03 -3.475e-02 -1.335e-01
          7.892e-03 -3.757e-02 -1.327e-01
          1.074e-02 -3.523e-02 -1.332e-01
          1.050e-02 -3.888e-02 -1.322e-01
          1.352e-02 -3.820e-02 -1.321e-01
          -2.241e-02 -3.160e-02 -1.326e-01
          -2.467e-02 -3.463e-02 -1.315e-01
          -2.112e-02 -3.479e-02 -1.320e-01
          -1.882e-02 -3.180e-02 -1.331e-01
          -1.748e-02 -3.495e-02 -1.325e-01
          -1.519e-02 -3.187e-02 -1.336e-01
          -1.144e-02 -3.194e-02 -1.339e-01
          -7.599e-03 -3.204e-02 -1.342e-01
          -3.675e-03 -3.222e-02 -1.343e-01
          3.154e-04 -3.255e-02 -1.343e-01
          4.286e-03 -3.212e-02 -1.343e-01
          8.441e-03 -3.208e-02 -1.341e-01
          1.218e-02 -3.210e-02 -1.338e-01
          1.446e-02 -3.509e-02 -1.328e-01
          1.592e-02 -3.200e-02 -1.335e-01
          1.960e-02 -3.187e-02 -1.330e-01
          1.812e-02 -3.504e-02 -1.324e-01
          2.174e-02 -3.488e-02 -1.319e-01
          -2.387e-02 -2.832e-02 -1.331e-01
          -2.929e-02 -3.102e-02 -1.314e-01
          -2.590e-02 -3.135e-02 -1.320e-01
          -2.030e-02 -2.859e-02 -1.336e-01
[...]
      <PointData Scalars="icb">
        <DataArray type="Float32" Name="icb" NumberOfComponents="1" format="ascii">
          -1.363e-01
          -1.357e-01
          -1.360e-01
          -1.365e-01
          -1.361e-01
          -1.367e-01
          -1.362e-01
          -1.367e-01
          -1.362e-01
          -1.367e-01
          -1.361e-01
          -1.365e-01
          -1.359e-01
          -1.363e-01
          -1.356e-01
          -1.360e-01
          -1.363e-01
          -1.352e-01
          -1.356e-01
          -1.366e-01
          -1.360e-01
          -1.369e-01
          -1.371e-01
          -1.371e-01
          -1.371e-01
          -1.371e-01
          -1.369e-01
          -1.366e-01
          -1.355e-01
          -1.362e-01
          -1.357e-01
          -1.364e-01
          -1.358e-01
          -1.369e-01
          -1.371e-01
          -1.373e-01
          -1.374e-01
          -1.375e-01
          -1.375e-01
          -1.373e-01
          -1.371e-01
          -1.367e-01
          -1.352e-01
          -1.363e-01
          -1.357e-01
          -1.364e-01
          -1.357e-01
          -1.361e-01
          -1.367e-01
          -1.372e-01
          -1.373e-01
          -1.376e-01
          -1.377e-01
          -1.378e-01
          -1.378e-01
          -1.377e-01
          -1.375e-01
          -1.372e-01
          -1.368e-01
          -1.363e-01
          -1.366e-01
          -1.360e-01
          -1.369e-01
          -1.374e-01
          -1.376e-01
          -1.379e-01
          -1.379e-01
          -1.380e-01
          -1.379e-01
          -1.378e-01
          -1.375e-01
          -1.372e-01
          -1.367e-01
          -1.358e-01
          -1.361e-01
          -1.354e-01
          -1.367e-01
          -1.361e-01
          -1.371e-01
          -1.375e-01
          -1.377e-01
          -1.380e-01
          -1.380e-01
          -1.381e-01
          -1.381e-01
          -1.380e-01
          -1.378e-01
          -1.374e-01
          -1.370e-01
          -1.364e-01
          -1.358e-01
          -1.367e-01
          -1.362e-01
          -1.372e-01
          -1.375e-01
          -1.378e-01
          -1.380e-01
          -1.381e-01
          -1.382e-01
          -1.381e-01
          -1.379e-01
          -1.376e-01
          -1.373e-01
          -1.369e-01
          -1.364e-01
          -1.359e-01
          -1.367e-01
          -1.362e-01
          -1.371e-01
          -1.374e-01
          -1.378e-01
          -1.379e-01
          -1.381e-01
          -1.381e-01
          -1.381e-01
          -1.380e-01
          -1.377e-01
          -1.374e-01
          -1.370e-01
          -1.364e-01
          -1.359e-01
          -1.365e-01
          -1.361e-01
          -1.370e-01
          -1.373e-01
          -1.376e-01
          -1.378e-01
          -1.380e-01
          -1.380e-01
          -1.379e-01
          -1.377e-01
          -1.375e-01
          -1.371e-01
          -1.367e-01
          -1.358e-01
          -1.362e-01
          -1.362e-01
          -1.359e-01
          -1.368e-01
          -1.370e-01
          -1.374e-01
          -1.375e-01
          -1.378e-01
          -1.378e-01
          -1.378e-01
          -1.377e-01
          -1.374e-01
          -1.371e-01
          -1.366e-01
          -1.360e-01
          -1.355e-01
          -1.365e-01
          -1.358e-01
          -1.366e-01
          -1.371e-01
          -1.372e-01
          -1.375e-01
          -1.376e-01
          -1.375e-01
          -1.373e-01
          -1.370e-01
          -1.366e-01
          -1.362e-01
          -1.360e-01
          -1.354e-01
          -1.362e-01
          -1.360e-01
          -1.367e-01
          -1.367e-01
          -1.371e-01
          -1.372e-01
          -1.372e-01
          -1.371e-01
          -1.368e-01
          -1.365e-01
          -1.359e-01
          -1.357e-01
          -1.363e-01
          -1.363e-01
          -1.357e-01
          -1.368e-01
          -1.368e-01
          -1.367e-01
          -1.365e-01
          -1.362e-01
          -1.363e-01
          -1.357e-01
          -1.358e-01
          -1.363e-01
          -1.363e-01
          -1.329e-01
          -1.318e-01
          -1.322e-01
          -1.333e-01
          -1.325e-01
          -1.335e-01
          -1.327e-01
          -1.335e-01
          -1.326e-01
          -1.334e-01
          -1.325e-01
          -1.335e-01
          -1.326e-01
          -1.335e-01
          -1.327e-01
          -1.332e-01
          -1.322e-01
          -1.321e-01
          -1.326e-01
          -1.315e-01
          -1.320e-01
          -1.331e-01
          -1.325e-01
          -1.336e-01
          -1.339e-01
          -1.342e-01
          -1.343e-01
          -1.343e-01
          -1.343e-01
          -1.341e-01
          -1.338e-01
          -1.328e-01
          -1.335e-01
          -1.330e-01
          -1.324e-01
          -1.319e-01
          -1.331e-01
          -1.314e-01
          -1.320e-01
          -1.336e-01
          -1.341e-01
          -1.345e-01
          -1.348e-01
          -1.349e-01
          -1.350e-01
          -1.350e-01
          -1.349e-01
          -1.347e-01
          -1.344e-01
          -1.340e-01
          -1.335e-01
          -1.325e-01
          -1.329e-01
          -1.319e-01
          -1.328e-01
          -1.318e-01
          -1.325e-01
          -1.335e-01
          -1.340e-01
          -1.345e-01
          -1.349e-01
          -1.353e-01
          -1.355e-01
          -1.356e-01
          -1.356e-01
          -1.356e-01
          -1.355e-01
          -1.352e-01
          -1.349e-01
          -1.344e-01
          -1.339e-01
          -1.323e-01
          -1.333e-01
          -1.326e-01
          -1.324e-01
          -1.312e-01
          -1.321e-01
          -1.331e-01
          -1.338e-01
          -1.344e-01
          -1.349e-01
          -1.353e-01
          -1.352e-01
          -1.347e-01
          -1.342e-01
          -1.336e-01
          -1.316e-01
          -1.331e-01
          -1.322e-01
          -1.333e-01
          -1.318e-01
          -1.339e-01
          -1.347e-01
          -1.346e-01
          -1.350e-01
          -1.345e-01
          -1.341e-01
          -1.335e-01
          -1.326e-01
          -1.323e-01
          -1.315e-01
          -1.326e-01
          -1.334e-01
          -1.341e-01
          -1.350e-01
          -1.354e-01
          -1.348e-01
          -1.342e-01
          -1.338e-01
          -1.321e-01
          -1.332e-01
          -1.317e-01
          -1.329e-01
          -1.318e-01
          -1.338e-01
          -1.344e-01
          -1.352e-01
          -1.351e-01
          -1.347e-01
          -1.342e-01
          -1.332e-01
          -1.328e-01
          -1.332e-01
          -1.323e-01
          -1.341e-01
          -1.347e-01
          -1.355e-01
          -1.350e-01
          -1.344e-01
          -1.335e-01
          -1.322e-01
          -1.335e-01
          -1.326e-01
          -1.343e-01
          -1.349e-01
          -1.356e-01
          -1.352e-01
          -1.346e-01
          -1.337e-01
          -1.326e-01
          -1.328e-01
          -1.318e-01
          -1.336e-01
          -1.327e-01
          -1.343e-01
          -1.350e-01
          -1.357e-01
          -1.353e-01
          -1.346e-01
          -1.338e-01
          -1.329e-01
          -1.319e-01
          -1.335e-01
          -1.327e-01
          -1.343e-01
          -1.350e-01
          -1.356e-01
          -1.352e-01
          -1.345e-01
          -1.338e-01
          -1.320e-01
          -1.330e-01
          -1.334e-01
          -1.326e-01
          -1.341e-01
          -1.349e-01
          -1.354e-01
          -1.356e-01
          -1.351e-01
          -1.343e-01
          -1.336e-01
          -1.329e-01
          -1.332e-01
          -1.324e-01
          -1.338e-01
          -1.347e-01
          -1.352e-01
          -1.353e-01
          -1.348e-01
          -1.340e-01
          -1.334e-01
          -1.327e-01
          -1.321e-01
          -1.334e-01
          -1.328e-01
          -1.343e-01
          -1.348e-01
          -1.351e-01
          -1.356e-01
          -1.349e-01
          -1.345e-01
          -1.336e-01
          -1.330e-01
          -1.324e-01
          -1.330e-01
          -1.324e-01
          -1.339e-01
          -1.344e-01
          -1.346e-01
          -1.355e-01
          -1.354e-01
          -1.352e-01
          -1.344e-01
          -1.340e-01
          -1.331e-01
          -1.320e-01
          -1.326e-01
          -1.319e-01
          -1.329e-01
          -1.324e-01
          -1.335e-01
          -1.338e-01
          -1.348e-01
          -1.349e-01
          -1.350e-01
          -1.359e-01
          -1.356e-01
          -1.351e-01
          -1.347e-01
          -1.339e-01
          -1.334e-01
          -1.320e-01
          -1.325e-01
          -1.318e-01
          -1.332e-01
          -1.322e-01
          -1.339e-01
          -1.341e-01
          -1.343e-01
          -1.350e-01
          -1.351e-01
          -1.351e-01
          -1.358e-01
          -1.357e-01
          -1.355e-01
          -1.352e-01
          -1.348e-01
          -1.344e-01
          -1.338e-01
          -1.331e-01
          -1.323e-01
          -1.328e-01
          -1.332e-01
          -1.321e-01
          -1.334e-01
          -1.336e-01
          -1.343e-01
          -1.343e-01
          -1.344e-01
          -1.351e-01
          -1.350e-01
          -1.347e-01
          -1.344e-01
          -1.340e-01
          -1.334e-01
          -1.328e-01
          -1.324e-01
          -1.321e-01
          -1.325e-01
          -1.327e-01
          -1.328e-01
          -1.318e-01
          -1.336e-01
          -1.336e-01
          -1.337e-01
          -1.344e-01
          -1.344e-01
          -1.342e-01
          -1.339e-01
          -1.335e-01
          -1.330e-01
          -1.319e-01
          -1.321e-01
          -1.327e-01
          -1.328e-01
          -1.329e-01
          -1.320e-01
          -1.337e-01
          -1.335e-01
          -1.319e-01
          -1.333e-01
          -1.329e-01
          -1.324e-01
          -1.320e-01
          -1.328e-01
          -1.296e-01
          -1.289e-01
          -1.283e-01
          -1.297e-01
          -1.285e-01
          -1.296e-01
          -1.285e-01
          -1.296e-01
          -1.285e-01
          -1.296e-01
          -1.284e-01
          -1.295e-01
          -1.284e-01
          -1.282e-01
          -1.293e-01
          -1.280e-01
          -1.272e-01
          -1.299e-01
          -1.284e-01
          -1.301e-01
          -1.290e-01
          -1.307e-01
          -1.307e-01
          -1.307e-01
          -1.306e-01
          -1.307e-01
          -1.307e-01
          -1.292e-01
          -1.305e-01
          -1.301e-01
          -1.288e-01
          -1.297e-01
          -1.284e-01
          -1.292e-01
          -1.295e-01
          -1.280e-01
          -1.288e-01
          -1.301e-01
          -1.306e-01
          -1.310e-01
          -1.315e-01
          -1.317e-01
          -1.317e-01
          -1.316e-01
          -1.317e-01
          -1.316e-01
          -1.312e-01
          -1.309e-01
          -1.305e-01
          -1.285e-01
          -1.299e-01
          -1.294e-01
          -1.280e-01
          -1.287e-01
          -1.287e-01
          -1.272e-01
          -1.280e-01
          -1.294e-01
          -1.288e-01
          -1.302e-01
          -1.308e-01
          -1.314e-01
          -1.317e-01
          -1.312e-01
          -1.307e-01
          -1.301e-01
          -1.281e-01
          -1.294e-01
          -1.286e-01
          -1.286e-01
          -1.272e-01
          -1.278e-01
          -1.293e-01
          -1.301e-01
          -1.308e-01
          -1.313e-01
          -1.307e-01
          -1.300e-01
          -1.278e-01
          -1.292e-01
          -1.284e-01
          -1.292e-01
          -1.280e-01
          -1.300e-01
          -1.307e-01
          -1.312e-01
          -1.305e-01
          -1.296e-01
          -1.277e-01
          -1.291e-01
          -1.284e-01
          -1.289e-01
          -1.286e-01
          -1.276e-01
          -1.303e-01
          -1.311e-01
          -1.315e-01
          -1.305e-01
          -1.299e-01
          -1.291e-01
          -1.290e-01
          -1.275e-01
          -1.281e-01
          -1.295e-01
          -1.300e-01
          -1.310e-01
          -1.304e-01
          -1.282e-01
          -1.296e-01
          -1.285e-01
          -1.298e-01
          -1.284e-01
          -1.303e-01
          -1.307e-01
          -1.315e-01
          -1.309e-01
          -1.297e-01
          -1.288e-01
          -1.305e-01
          -1.291e-01
          -1.311e-01
          -1.307e-01
          -1.299e-01
          -1.277e-01
          -1.289e-01
          -1.275e-01
          -1.291e-01
          -1.276e-01
          -1.284e-01
          -1.298e-01
          -1.311e-01
          -1.311e-01
          -1.302e-01
          -1.295e-01
          -1.283e-01
          -1.295e-01
          -1.283e-01
          -1.304e-01
          -1.315e-01
          -1.315e-01
          -1.307e-01
          -1.297e-01
          -1.285e-01
          -1.297e-01
          -1.284e-01
          -1.307e-01
          -1.317e-01
          -1.309e-01
          -1.299e-01
          -1.286e-01
          -1.297e-01
          -1.285e-01
          -1.308e-01
          -1.318e-01
          -1.310e-01
          -1.299e-01
          -1.288e-01
          -1.297e-01
          -1.285e-01
          -1.308e-01
          -1.318e-01
          -1.320e-01
          -1.310e-01
          -1.299e-01
          -1.288e-01
          -1.296e-01
          -1.285e-01
          -1.307e-01
          -1.316e-01
          -1.319e-01
          -1.310e-01
          -1.298e-01
          -1.288e-01
          -1.284e-01
          -1.306e-01
          -1.294e-01
          -1.314e-01
          -1.316e-01
          -1.308e-01
          -1.296e-01
          -1.286e-01
          -1.303e-01
          -1.291e-01
          -1.310e-01
          -1.317e-01
          -1.313e-01
          -1.305e-01
          -1.284e-01
          -1.293e-01
          -1.298e-01
          -1.286e-01
          -1.305e-01
          -1.312e-01
          -1.314e-01
          -1.308e-01
          -1.301e-01
          -1.289e-01
          -1.292e-01
          -1.299e-01
          -1.285e-01
          -1.307e-01
          -1.314e-01
          -1.314e-01
          -1.309e-01
          -1.302e-01
          -1.295e-01
          -1.281e-01
          -1.295e-01
          -1.283e-01
          -1.302e-01
          -1.307e-01
          -1.312e-01
          -1.314e-01
          -1.302e-01
          -1.296e-01
          -1.288e-01
          -1.283e-01
          -1.291e-01
          -1.295e-01
          -1.280e-01
          -1.300e-01
          -1.305e-01
          -1.317e-01
          -1.318e-01
          -1.310e-01
          -1.301e-01
          -1.306e-01
          -1.288e-01
          -1.294e-01
          -1.283e-01
          -1.293e-01
          -1.287e-01
          -1.297e-01
          -1.309e-01
          -1.313e-01
          -1.316e-01
          -1.313e-01
          -1.307e-01
          -1.299e-01
          -1.290e-01
          -1.281e-01
          -1.287e-01
          -1.279e-01
          -1.289e-01
          -1.284e-01
          -1.301e-01
          -1.304e-01
          -1.307e-01
          -1.310e-01
          -1.315e-01
          -1.319e-01
          -1.326e-01
          -1.322e-01
          -1.318e-01
          -1.313e-01
          -1.308e-01
          -1.301e-01
          -1.294e-01
          -1.277e-01
          -1.286e-01
          -1.277e-01
          -1.292e-01
          -1.294e-01
          -1.283e-01
          -1.299e-01
          -1.303e-01
          -1.307e-01
          -1.310e-01
          -1.310e-01
          -1.310e-01
          -1.308e-01
          -1.315e-01
          -1.310e-01
          -1.306e-01
          -1.301e-01
          -1.295e-01
          -1.280e-01
          -1.287e-01
          -1.279e-01
          -1.286e-01
          -1.292e-01
          -1.278e-01
          -1.296e-01
          -1.298e-01
          -1.300e-01
          -1.299e-01
          -1.299e-01
          -1.302e-01
          -1.299e-01
          -1.294e-01
          -1.286e-01
          -1.288e-01
          -1.281e-01
          -1.283e-01
          -1.287e-01
          -1.288e-01
          -1.288e-01
          -1.288e-01
          -1.290e-01
          -1.290e-01
          -1.277e-01
          -1.261e-01
          -1.250e-01
          -1.236e-01
          -1.258e-01
          -1.245e-01
          -1.260e-01
          -1.246e-01
          -1.260e-01
          -1.247e-01
          -1.260e-01
          -1.247e-01
          -1.259e-01
          -1.247e-01
          -1.258e-01
          -1.245e-01
          -1.255e-01
          -1.243e-01
          -1.239e-01
          -1.253e-01
          -1.244e-01
          -1.237e-01
          -1.262e-01
          -1.245e-01
          -1.273e-01
          -1.272e-01
          -1.272e-01
          -1.273e-01
          -1.273e-01
          -1.272e-01
          -1.271e-01
          -1.269e-01
          -1.251e-01
          -1.266e-01
          -1.261e-01
          -1.246e-01
          -1.255e-01
          -1.239e-01
          -1.247e-01
          -1.257e-01
          -1.247e-01
          -1.241e-01
          -1.265e-01
          -1.250e-01
          -1.258e-01
          -1.268e-01
          -1.278e-01
          -1.279e-01
          -1.275e-01
          -1.270e-01
          -1.263e-01
          -1.254e-01
          -1.270e-01
          -1.256e-01
          -1.240e-01
          -1.243e-01
          -1.248e-01
          -1.231e-01
          -1.232e-01
          -1.258e-01
          -1.244e-01
          -1.264e-01
          -1.273e-01
          -1.278e-01
          -1.268e-01
          -1.257e-01
          -1.243e-01
          -1.258e-01
          -1.242e-01
          -1.246e-01
          -1.230e-01
          -1.243e-01
          -1.258e-01
          -1.264e-01
          -1.273e-01
          -1.272e-01
          -1.268e-01
          -1.255e-01
          -1.259e-01
          -1.243e-01
          -1.243e-01
          -1.229e-01
          -1.233e-01
          -1.249e-01
          -1.263e-01
          -1.273e-01
          -1.263e-01
          -1.247e-01
          -1.255e-01
          -1.242e-01
          -1.253e-01
          -1.239e-01
          -1.259e-01
          -1.270e-01
          -1.262e-01
          -1.244e-01
          -1.255e-01
          -1.238e-01
          -1.257e-01
          -1.241e-01
          -1.246e-01
          -1.262e-01
          -1.267e-01
          -1.269e-01
          -1.261e-01
          -1.248e-01
          -1.267e-01
          -1.251e-01
          -1.272e-01
          -1.276e-01
          -1.266e-01
          -1.249e-01
          -1.257e-01
          -1.240e-01
          -1.255e-01
          -1.238e-01
          -1.246e-01
          -1.261e-01
          -1.272e-01
          -1.261e-01
          -1.248e-01
          -1.261e-01
          -1.248e-01
          -1.269e-01
          -1.275e-01
          -1.263e-01
          -1.246e-01
          -1.251e-01
          -1.237e-01
          -1.256e-01
          -1.240e-01
          -1.245e-01
          -1.270e-01
          -1.276e-01
          -1.264e-01
          -1.261e-01
          -1.248e-01
          -1.257e-01
          -1.246e-01
          -1.263e-01
          -1.271e-01
          -1.257e-01
          -1.244e-01
          -1.259e-01
          -1.245e-01
          -1.271e-01
          -1.273e-01
          -1.260e-01
          -1.245e-01
          -1.259e-01
          -1.245e-01
          -1.272e-01
          -1.275e-01
          -1.261e-01
          -1.247e-01
          -1.260e-01
          -1.246e-01
          -1.273e-01
          -1.276e-01
          -1.262e-01
          -1.248e-01
          -1.260e-01
          -1.246e-01
          -1.273e-01
          -1.276e-01
          -1.263e-01
          -1.249e-01
          -1.259e-01
          -1.246e-01
          -1.272e-01
          -1.275e-01