<?xml version="1.0"?>
<VTKFile type="UnstructuredGrid" version="0.1" byte_order="LittleEndian" compressor="vtkZLibDataCompressor">
  <UnstructuredGrid>
    <Piece NumberOfPoints="20218" NumberOfCells="40432">
      <Points>
        <DataArray type="Float32" NumberOfComponents="3" format="ascii">
          -6.349e+01 -3.047e+02 -1.679e+03
          -1.705e+01 -3.727e+02 -1.665e+03
          -6.806e+01 -3.700e+02 -1.667e+03
          -3.675e+01 -3.352e+02 -1.673e+03
          -1.378e+02 -2.976e+02 -1.675e+03
          -1.477e+02 -3.431e+02 -1.665e+03
          -1.804e+02 -3.141e+02 -1.668e+03
          -9.838e+01 -2.779e+02 -1.681e+03
          -1.001e+02 -3.309e+02 -1.673e+03
          -5.356e+01 -2.572e+02 -1.686e+03
          -1.825e+01 -2.874e+02 -1.681e+03
          8.068e+00 -3.249e+02 -1.674e+03
          2.719e+01 -2.744e+02 -1.680e+03
          5.170e+01 -3.191e+02 -1.675e+03
          7.188e+01 -2.720e+02 -1.680e+03
          9.643e+01 -3.187e+02 -1.674e+03
          1.194e+02 -2.768e+02 -1.678e+03
          1.430e+02 -3.208e+02 -1.670e+03
          1.916e+02 -3.186e+02 -1.665e+03
          -1.835e+02 -2.249e+02 -1.680e+03
          -1.818e+02 -2.703e+02 -1.675e+03
          -2.262e+02 -2.504e+02 -1.673e+03
          -1.395e+02 -2.502e+02 -1.682e+03
          -9.517e+01 -2.305e+02 -1.688e+03
          -4.899e+01 -2.113e+02 -1.693e+03
          -5.707e+00 -2.395e+02 -1.688e+03
          4.377e+01 -2.234e+02 -1.688e+03
          9.552e+01 -2.311e+02 -1.686e+03
          1.438e+02 -2.371e+02 -1.682e+03
          1.910e+02 -2.472e+02 -1.676e+03
          1.679e+02 -2.813e+02 -1.673e+03
          2.253e+02 -2.775e+02 -1.667e+03
          -2.279e+02 -2.030e+02 -1.677e+03
          -2.709e+02 -2.273e+02 -1.669e+03
          -2.715e+02 -1.793e+02 -1.674e+03
          -1.840e+02 -1.790e+02 -1.684e+03
          -1.391e+02 -2.041e+02 -1.687e+03
          -9.399e+01 -1.843e+02 -1.693e+03
          -4.875e+01 -1.650e+02 -1.696e+03
          -2.479e+00 -1.931e+02 -1.695e+03
          3.927e+01 -1.701e+02 -1.696e+03
          8.320e+01 -1.865e+02 -1.694e+03
          1.315e+02 -1.919e+02 -1.690e+03
          1.804e+02 -2.043e+02 -1.684e+03
          2.206e+02 -1.795e+02 -1.681e+03
          2.287e+02 -2.266e+02 -1.675e+03
          2.662e+02 -2.013e+02 -1.672e+03
          -2.726e+02 -1.314e+02 -1.679e+03
          -3.146e+02 -1.554e+02 -1.671e+03
          -3.571e+02 -1.294e+02 -1.664e+03
          -2.285e+02 -1.556e+02 -1.681e+03
          -1.848e+02 -1.326e+02 -1.689e+03
          -1.396e+02 -1.580e+02 -1.692e+03
          -9.498e+01 -1.376e+02 -1.695e+03
          -5.126e+01 -1.172e+02 -1.698e+03
          -5.502e+00 -1.434e+02 -1.697e+03
          3.673e+01 -1.193e+02 -1.700e+03
          8.133e+01 -1.374e+02 -1.698e+03
          1.273e+02 -1.453e+02 -1.696e+03
          1.732e+02 -1.600e+02 -1.690e+03
          2.140e+02 -1.323e+02 -1.686e+03
          2.596e+02 -1.526e+02 -1.677e+03
          -2.740e+02 -8.303e+01 -1.681e+03
          -3.157e+02 -1.065e+02 -1.673e+03
          -2.298e+02 -1.081e+02 -1.686e+03
          -1.861e+02 -8.554e+01 -1.692e+03
          -1.408e+02 -1.112e+02 -1.695e+03
          -9.707e+01 -8.990e+01 -1.698e+03
          -5.379e+01 -6.939e+01 -1.701e+03
          -8.783e+00 -9.364e+01 -1.701e+03
          3.300e+01 -7.114e+01 -1.704e+03
          7.839e+01 -8.742e+01 -1.702e+03
          1.232e+02 -9.787e+01 -1.699e+03
          1.685e+02 -1.128e+02 -1.694e+03
          2.077e+02 -8.391e+01 -1.689e+03
          2.530e+02 -1.044e+02 -1.680e+03
          2.981e+02 -1.242e+02 -1.671e+03
          3.364e+02 -9.571e+01 -1.664e+03
          -2.760e+02 -3.519e+01 -1.682e+03
          -3.180e+02 -5.760e+01 -1.673e+03
          -2.310e+02 -6.040e+01 -1.688e+03
          -1.870e+02 -3.800e+01 -1.693e+03
          -1.423e+02 -6.361e+01 -1.697e+03
          -9.872e+01 -4.129e+01 -1.701e+03
          -5.499e+01 -2.195e+01 -1.702e+03
          -1.209e+01 -4.259e+01 -1.705e+03
          2.928e+01 -2.530e+01 -1.705e+03
          7.305e+01 -3.772e+01 -1.702e+03
          1.167e+02 -4.892e+01 -1.698e+03
          1.618e+02 -6.372e+01 -1.696e+03
          1.996e+02 -3.529e+01 -1.690e+03
          2.463e+02 -5.615e+01 -1.682e+03
          2.917e+02 -7.628e+01 -1.673e+03
          -2.778e+02 1.233e+01 -1.683e+03
          -3.207e+02 -9.663e+00 -1.675e+03
          -2.329e+02 -1.311e+01 -1.689e+03
          -1.893e+02 8.871e+00 -1.694e+03
          -1.426e+02 -1.545e+01 -1.700e+03
          -9.730e+01 8.684e+00 -1.702e+03
          -4.735e+01 2.041e+01 -1.703e+03
          9.577e-01 1.059e+01 -1.705e+03
          5.594e+01 1.146e+01 -1.703e+03
          1.045e+02 1.765e+00 -1.697e+03
          1.515e+02 -1.296e+01 -1.693e+03
          1.908e+02 1.188e+01 -1.689e+03
          2.394e+02 -8.795e+00 -1.685e+03
          2.800e+02 1.701e+01 -1.677e+03
          2.856e+02 -2.896e+01 -1.674e+03
          3.255e+02 -6.986e-01 -1.665e+03
          -2.783e+02 5.967e+01 -1.681e+03
          -3.223e+02 3.779e+01 -1.675e+03
          -2.340e+02 3.439e+01 -1.690e+03
          -1.899e+02 5.687e+01 -1.695e+03
          -1.465e+02 3.102e+01 -1.700e+03
          -1.076e+02 5.511e+01 -1.701e+03
          -6.530e+01 6.249e+01 -1.700e+03
          -1.623e+01 5.794e+01 -1.701e+03
          3.272e+01 5.260e+01 -1.702e+03
          8.640e+01 4.998e+01 -1.698e+03
          1.384e+02 3.865e+01 -1.694e+03
          1.855e+02 5.751e+01 -1.688e+03
          2.321e+02 3.744e+01 -1.686e+03
          2.728e+02 6.095e+01 -1.680e+03
          3.219e+02 4.415e+01 -1.671e+03
          -2.775e+02 1.073e+02 -1.679e+03
          -3.216e+02 8.527e+01 -1.673e+03
          -2.345e+02 8.172e+01 -1.688e+03
          -1.906e+02 1.041e+02 -1.692e+03
          -1.459e+02 8.141e+01 -1.698e+03
          -9.680e+01 1.036e+02 -1.698e+03
          -4.328e+01 1.027e+02 -1.698e+03
          7.443e+00 9.879e+01 -1.698e+03
          5.662e+01 9.447e+01 -1.698e+03
          1.039e+02 9.412e+01 -1.693e+03
          1.473e+02 8.873e+01 -1.689e+03
          1.894e+02 1.053e+02 -1.682e+03
          2.290e+02 8.544e+01 -1.683e+03
          2.690e+02 1.078e+02 -1.679e+03
          3.121e+02 8.435e+01 -1.674e+03
          -2.761e+02 1.547e+02 -1.675e+03
          -3.204e+02 1.321e+02 -1.669e+03
          -2.332e+02 1.292e+02 -1.683e+03
          -1.881e+02 1.510e+02 -1.687e+03
          -1.461e+02 1.271e+02 -1.694e+03
          -1.079e+02 1.496e+02 -1.693e+03
          -6.420e+01 1.465e+02 -1.695e+03
          -1.585e+01 1.439e+02 -1.696e+03
          3.318e+01 1.405e+02 -1.697e+03
          8.184e+01 1.388e+02 -1.695e+03
          1.307e+02 1.376e+02 -1.687e+03
          1.766e+02 1.459e+02 -1.681e+03
          2.270e+02 1.387e+02 -1.680e+03
          2.768e+02 1.483e+02 -1.673e+03
          3.191e+02 1.228e+02 -1.670e+03
          -3.178e+02 1.780e+02 -1.667e+03
          -2.770e+02 2.043e+02 -1.673e+03
          -2.337e+02 1.762e+02 -1.679e+03
          -1.909e+02 1.953e+02 -1.683e+03
          -1.435e+02 1.786e+02 -1.687e+03
          -9.138e+01 1.930e+02 -1.690e+03
          -4.097e+01 1.892e+02 -1.691e+03
          8.635e+00 1.855e+02 -1.692e+03
          5.774e+01 1.833e+02 -1.694e+03
          1.064e+02 1.823e+02 -1.691e+03
          1.527e+02 1.864e+02 -1.685e+03
          2.004e+02 1.866e+02 -1.680e+03
          2.437e+02 1.851e+02 -1.674e+03
          2.897e+02 1.877e+02 -1.665e+03
          -2.376e+02 2.236e+02 -1.677e+03
          -2.307e+02 2.690e+02 -1.669e+03
          -1.943e+02 2.372e+02 -1.678e+03
          -1.491e+02 2.244e+02 -1.682e+03
          -1.043e+02 2.372e+02 -1.683e+03
          -5.949e+01 2.353e+02 -1.686e+03
          -1.280e+01 2.309e+02 -1.685e+03
          3.485e+01 2.271e+02 -1.687e+03
          8.333e+01 2.256e+02 -1.687e+03
          1.310e+02 2.282e+02 -1.683e+03
          1.785e+02 2.320e+02 -1.678e+03
          2.238e+02 2.313e+02 -1.672e+03
          2.720e+02 2.251e+02 -1.664e+03
          -1.808e+02 2.744e+02 -1.672e+03
          -1.348e+02 2.698e+02 -1.675e+03
          -1.175e+02 3.086e+02 -1.669e+03
          -8.134e+01 2.818e+02 -1.677e+03
          -3.352e+01 2.777e+02 -1.679e+03
          1.342e+01 2.726e+02 -1.679e+03
          6.029e+01 2.684e+02 -1.679e+03
          1.078e+02 2.691e+02 -1.677e+03
          1.260e+02 3.151e+02 -1.669e+03
          1.554e+02 2.738e+02 -1.673e+03
          2.042e+02 2.786e+02 -1.669e+03
          -9.215e+01 3.406e+02 -1.666e+03
          -5.064e+01 3.238e+02 -1.671e+03
          -3.787e+00 3.191e+02 -1.671e+03
          4.106e+01 3.142e+02 -1.672e+03
          8.348e+01 3.111e+02 -1.672e+03
          -1.372e+02 -4.933e+02 -1.626e+03
          -1.675e+02 -5.293e+02 -1.613e+03
          -1.869e+02 -4.907e+02 -1.623e+03
          -8.729e+01 -4.974e+02 -1.629e+03
          -1.181e+02 -5.302e+02 -1.618e+03
          -4.141e+01 -4.975e+02 -1.630e+03
          -6.639e+01 -5.409e+02 -1.617e+03
          5.946e+00 -4.947e+02 -1.633e+03
          -1.746e+01 -5.360e+02 -1.618e+03
          5.369e+01 -4.920e+02 -1.634e+03
          3.092e+01 -5.335e+02 -1.621e+03
          1.008e+02 -4.887e+02 -1.632e+03
          7.868e+01 -5.308e+02 -1.621e+03
          1.479e+02 -4.866e+02 -1.630e+03
          1.258e+02 -5.279e+02 -1.618e+03
          1.728e+02 -5.250e+02 -1.615e+03
          -2.492e+02 -4.379e+02 -1.630e+03
          -2.333e+02 -4.845e+02 -1.619e+03
          -2.774e+02 -4.764e+02 -1.615e+03
          -1.793e+02 -4.184e+02 -1.643e+03
          -2.070e+02 -4.489e+02 -1.632e+03
          -1.576e+02 -4.561e+02 -1.636e+03
          -1.096e+02 -4.563e+02 -1.641e+03
          -6.363e+01 -4.559e+02 -1.643e+03
          -1.782e+01 -4.545e+02 -1.643e+03
          2.955e+01 -4.527e+02 -1.646e+03
          7.620e+01 -4.490e+02 -1.645e+03
          1.231e+02 -4.465e+02 -1.643e+03
          1.704e+02 -4.444e+02 -1.640e+03
          1.947e+02 -4.827e+02 -1.626e+03
          2.183e+02 -4.403e+02 -1.633e+03
          2.414e+02 -4.782e+02 -1.619e+03
          2.877e+02 -4.746e+02 -1.614e+03
[...]
      <PointData Scalars="depth (km)">
        <DataArray type="Float32" Name="depth (km)" NumberOfComponents="1" format="ascii">
          -2.986e+01
          -3.095e+01
          -2.782e+01
          -3.030e+01
          -3.064e+01
          -3.032e+01
          -3.025e+01
          -3.034e+01
          -2.923e+01
          -3.049e+01
          -3.194e+01
          -3.236e+01
          -3.466e+01
          -3.123e+01
          -3.353e+01
          -3.039e+01
          -3.198e+01
          -3.092e+01
          -3.073e+01
          -3.228e+01
          -3.082e+01
          -3.070e+01
          -3.066e+01
          -3.105e+01
          -3.056e+01
          -3.238e+01
          -3.376e+01
          -3.260e+01
          -3.239e+01
          -3.181e+01
          -3.221e+01
          -3.240e+01
          -3.285e+01
          -3.121e+01
          -3.221e+01
          -3.393e+01
          -3.177e+01
          -3.182e+01
          -3.215e+01
          -3.098e+01
          -3.181e+01
          -3.092e+01
          -3.159e+01
          -3.150e+01
          -3.198e+01
          -3.118e+01
          -3.181e+01
          -3.090e+01
          -2.983e+01
          -3.042e+01
          -3.311e+01
          -3.330e+01
          -3.212e+01
          -3.347e+01
          -3.462e+01
          -3.368e+01
          -3.305e+01
          -3.140e+01
          -3.052e+01
          -3.121e+01
          -3.238e+01
          -3.378e+01
          -3.223e+01
          -3.130e+01
          -3.172e+01
          -3.296e+01
          -3.271e+01
          -3.426e+01
          -3.379e+01
          -3.313e+01
          -3.126e+01
          -3.153e+01
          -3.066e+01
          -3.073e+01
          -3.325e+01
          -3.537e+01
          -3.530e+01
          -3.678e+01
          -3.248e+01
          -3.291e+01
          -3.232e+01
          -3.320e+01
          -3.254e+01
          -3.325e+01
          -3.403e+01
          -3.194e+01
          -3.138e+01
          -3.287e+01
          -3.427e+01
          -3.263e+01
          -3.470e+01
          -3.582e+01
          -3.767e+01
          -3.103e+01
          -3.154e+01
          -3.210e+01
          -3.245e+01
          -3.124e+01
          -3.233e+01
          -3.380e+01
          -3.244e+01
          -3.355e+01
          -3.697e+01
          -3.740e+01
          -3.699e+01
          -3.499e+01
          -3.720e+01
          -3.861e+01
          -4.026e+01
          -3.185e+01
          -3.056e+01
          -3.111e+01
          -3.038e+01
          -3.091e+01
          -3.188e+01
          -3.485e+01
          -3.513e+01
          -3.428e+01
          -3.623e+01
          -3.719e+01
          -3.778e+01
          -3.513e+01
          -3.373e+01
          -3.468e+01
          -3.213e+01
          -3.178e+01
          -3.085e+01
          -3.090e+01
          -3.075e+01
          -3.290e+01
          -3.595e+01
          -3.577e+01
          -3.595e+01
          -3.802e+01
          -3.909e+01
          -4.117e+01
          -3.606e+01
          -3.285e+01
          -3.183e+01
          -3.259e+01
          -3.250e+01
          -3.271e+01
          -3.323e+01
          -3.216e+01
          -3.374e+01
          -3.420e+01
          -3.532e+01
          -3.428e+01
          -3.464e+01
          -3.915e+01
          -4.014e+01
          -3.643e+01
          -3.456e+01
          -3.254e+01
          -3.081e+01
          -2.950e+01
          -3.265e+01
          -3.240e+01
          -3.435e+01
          -3.380e+01
          -3.469e+01
          -3.532e+01
          -3.187e+01
          -3.291e+01
          -3.500e+01
          -3.452e+01
          -3.534e+01
          -3.665e+01
          -2.917e+01
          -3.119e+01
          -3.099e+01
          -3.334e+01
          -3.395e+01
          -3.415e+01
          -3.605e+01
          -3.504e+01
          -3.332e+01
          -3.397e+01
          -3.337e+01
          -3.414e+01
          -3.642e+01
          -3.338e+01
          -3.521e+01
          -3.565e+01
          -3.509e+01
          -3.498e+01
          -3.616e+01
          -3.531e+01
          -3.540e+01
          -3.420e+01
          -3.432e+01
          -3.322e+01
          -3.444e+01
          -3.404e+01
          -3.557e+01
          -3.536e+01
          -3.426e+01
          -3.207e+01
          -3.147e+01
          -3.108e+01
          -3.208e+01
          -3.063e+01
          -3.279e+01
          -3.115e+01
          -3.100e+01
          -3.284e+01
          -3.011e+01
          -2.996e+01
          -3.100e+01
          -2.991e+01
          -2.933e+01
          -3.031e+01
          -3.015e+01
          -3.104e+01
          -3.121e+01
          -3.017e+01
          -3.224e+01
          -3.147e+01
          -3.153e+01
          -3.053e+01
          -3.108e+01
          -3.205e+01
          -2.977e+01
          -3.062e+01
          -3.018e+01
          -2.980e+01
          -3.034e+01
          -3.180e+01
          -3.224e+01
          -3.065e+01
          -3.351e+01
          -3.111e+01
          -3.167e+01
          -3.311e+01
          -3.261e+01
          -2.981e+01
          -2.771e+01
          -3.024e+01
          -3.117e+01
          -2.999e+01
          -3.063e+01
          -3.016e+01
          -2.992e+01
          -3.250e+01
          -3.310e+01
          -3.333e+01
          -3.369e+01
          -3.345e+01
          -3.302e+01
          -3.298e+01
          -3.525e+01
          -3.358e+01
          -3.179e+01
          -3.196e+01
          -2.813e+01
          -3.079e+01
          -3.025e+01
          -3.070e+01
          -2.957e+01
          -2.997e+01
          -3.147e+01
          -3.269e+01
          -3.397e+01
          -3.332e+01
          -3.360e+01
          -3.149e+01
          -3.285e+01
          -2.988e+01
          -3.210e+01
          -3.162e+01
          -3.278e+01
          -3.052e+01
          -3.137e+01
          -3.462e+01
          -3.681e+01
          -3.643e+01
          -3.481e+01
          -3.419e+01
          -3.346e+01
          -3.392e+01
          -3.008e+01
          -3.228e+01
          -3.196e+01
          -3.329e+01
          -3.158e+01
          -2.992e+01
          -3.341e+01
          -3.721e+01
          -3.511e+01
          -3.497e+01
          -3.538e+01
          -3.445e+01
          -3.383e+01
          -3.415e+01
          -3.537e+01
          -3.231e+01
          -3.286e+01
          -3.130e+01
          -3.301e+01
          -3.240e+01
          -3.326e+01
          -3.476e+01
          -3.737e+01
          -3.176e+01
          -3.429e+01
          -3.078e+01
          -3.086e+01
          -3.299e+01
          -3.282e+01
          -3.179e+01
          -3.502e+01
          -3.830e+01
          -3.101e+01
          -3.223e+01
          -3.262e+01
          -3.023e+01
          -2.996e+01
          -3.189e+01
          -3.393e+01
          -3.644e+01
          -3.740e+01
          -3.903e+01
          -3.188e+01
          -3.211e+01
          -3.017e+01
          -2.982e+01
          -3.146e+01
          -4.081e+01
          -3.810e+01
          -3.781e+01
          -3.760e+01
          -3.720e+01
          -3.770e+01
          -3.594e+01
          -3.362e+01
          -3.446e+01
          -3.158e+01
          -3.130e+01
          -3.063e+01
          -3.948e+01
          -3.549e+01
          -3.758e+01
          -3.567e+01
          -3.623e+01
          -3.655e+01
          -3.491e+01
          -3.415e+01
          -3.188e+01
          -2.937e+01
          -3.422e+01
          -3.311e+01
          -3.504e+01
          -3.434e+01
          -3.621e+01
          -3.528e+01
          -3.242e+01
          -3.631e+01
          -3.132e+01
          -3.032e+01
          -3.205e+01
          -3.532e+01
          -3.561e+01
          -3.511e+01
          -3.706e+01
          -3.270e+01
          -3.033e+01
          -3.455e+01
          -3.209e+01
          -3.116e+01
          -3.494e+01
          -3.483e+01
          -3.640e+01
          -3.562e+01
          -3.453e+01
          -2.945e+01
          -3.165e+01
          -3.386e+01
          -3.202e+01
          -3.006e+01
          -2.788e+01
          -3.569e+01
          -3.571e+01
          -3.395e+01
          -3.277e+01
          -3.194e+01
          -3.244e+01
          -3.030e+01
          -3.430e+01
          -3.117e+01
          -2.906e+01
          -2.954e+01
          -3.542e+01
          -3.602e+01
          -3.455e+01
          -3.445e+01
          -3.181e+01
          -3.105e+01
          -3.360e+01
          -3.492e+01
          -3.195e+01
          -2.744e+01
          -3.065e+01
          -3.292e+01
          -3.315e+01
          -3.429e+01
          -3.318e+01
          -3.303e+01
          -3.356e+01
          -3.554e+01
          -3.444e+01
          -3.456e+01
          -3.515e+01
          -3.355e+01
          -2.787e+01
          -3.070e+01
          -2.705e+01
          -3.243e+01
          -3.373e+01
          -3.383e+01
          -3.449e+01
          -3.521e+01
          -3.390e+01
          -3.396e+01
          -3.412e+01
          -3.386e+01
          -3.433e+01
          -3.456e+01
          -3.287e+01
          -3.457e+01
          -3.455e+01
          -3.488e+01
          -3.574e+01
          -2.976e+01
          -2.965e+01
          -3.153e+01
          -3.171e+01
          -3.398e+01
          -3.529e+01
          -3.569e+01
          -3.597e+01
          -3.663e+01
          -3.613e+01
          -3.463e+01
          -3.466e+01
          -3.484e+01
          -3.556e+01
          -3.405e+01
          -3.433e+01
          -3.491e+01
          -3.473e+01
          -3.050e+01
          -3.075e+01
          -3.242e+01
          -3.545e+01
          -3.583e+01
          -3.612e+01
          -3.818e+01
          -3.829e+01
          -3.605e+01
          -3.349e+01
          -3.407e+01
          -3.498e+01
          -3.611e+01
          -3.619e+01
          -3.686e+01
          -3.204e+01
          -3.253e+01
          -3.490e+01
          -3.535e+01
          -3.652e+01
          -3.786e+01
          -3.657e+01
          -3.331e+01
          -3.302e+01
          -3.387e+01
          -3.413e+01
          -3.435e+01
          -3.635e+01
          -3.511e+01
          -3.394e+01
          -3.322e+01
          -3.332e+01
          -2.810e+01
          -3.144e+01
          -3.153e+01
          -2.569e+01
          -2.743e+01
          -2.720e+01
          -2.564e+01
          -2.969e+01
          -2.666e+01
          -2.818e+01
          -3.052e+01
          -2.894e+01
          -3.052e+01
          -3.026e+01
          -2.788e+01
          -2.950e+01
          -2.750e+01
          -3.108e+01
          -2.997e+01
          -3.153e+01
          -3.173e+01
          -3.034e+01
          -3.013e+01
          -3.198e+01
          -3.072e+01
          -3.404e+01
          -3.223e+01
          -3.591e+01
          -3.095e+01
          -3.055e+01
          -3.074e+01
          -3.034e+01
          -3.107e+01
          -3.101e+01
          -3.180e+01
          -3.048e+01
          -2.939e+01
          -3.341e+01
          -3.321e+01
          -3.026e+01
          -3.088e+01
          -3.261e+01
          -3.462e+01
          -3.509e+01
          -3.553e+01
          -3.339e+01
          -3.250e+01
          -3.322e+01
          -3.151e+01
          -3.158e+01
          -3.038e+01
          -3.107e+01
          -2.938e+01
          -3.210e+01
          -3.055e+01
          -3.042e+01
          -3.144e+01
          -3.252e+01
          -3.178e+01
          -3.119e+01
          -3.392e+01
          -3.278e+01
          -3.324e+01
          -3.158e+01
          -3.235e+01
          -2.979e+01
          -3.102e+01
          -3.062e+01
          -3.136e+01
          -3.140e+01
          -3.171e+01
          -3.378e+01
          -3.323e+01
          -3.310e+01
          -3.246e+01
          -3.366e+01
          -3.375e+01
          -3.393e+01
          -3.477e+01
          -3.340e+01
          -3.197e+01
          -3.106e+01
          -3.459e+01
          -3.342e+01
          -3.197e+01
          -3.206e+01
          -3.289e+01
          -3.426e+01
          -3.149e+01
          -3.332e+01
          -3.184e+01
          -3.253e+01
          -3.266e+01
          -3.157e+01
          -3.101e+01
          -3.371e+01
          -3.116e+01
          -3.180e+01
          -3.052e+01
          -3.064e+01
          -2.958e+01
          -3.117e+01
          -3.003e+01
          -3.199e+01
          -3.610e+01
          -3.420e+01
          -3.166e+01
          -2.968e+01
          -3.168e+01
          -3.178e+01
          -3.117e+01
          -2.959e+01
          -3.039e+01
          -3.298e+01
          -3.338e+01
          -3.213e+01
          -3.290e+01
          -3.292e+01
          -3.367e+01
          -3.057e+01
          -3.044e+01
          -3.511e+01
          -3.465e+01
          -3.240e+01
          -3.233e+01
          -3.282e+01
          -3.302e+01
          -3.683e+01
          -3.238e+01
          -3.107e+01
          -3.197e+01
          -3.319e+01
          -3.239e+01
          -3.211e+01
          -3.677e+01
          -3.421e+01
          -3.369e+01
          -3.190e+01
          -3.413e+01
          -3.350e+01
          -3.381e+01
          -3.628e+01
          -3.719e+01
          -3.300e+01
          -3.327e+01
          -3.402e+01
          -3.457e+01
          -3.814e+01
          -3.914e+01
          -3.550e+01
          -3.062e+01
          -3.344e+01
          -3.238e+01
          -3.961e+01
          -3.930e+01
          -3.814e+01
          -2.974e+01
          -3.096e+01
          -2.917e+01
          -3.740e+01
          -3.891e+01
          -3.672e+01
          -3.840e+01
          -2.921e+01
          -2.999e+01
          -2.863e+01
          -3.617e+01
          -3.767e+01
          -3.495e+01
          -3.697e+01
          -2.672e+01
          -2.541e+01
          -2.829e+01
          -3.064e+01
          -3.348e+01
          -3.585e+01
          -3.519e+01
          -3.685e+01
          -2.565e+01
          -2.181e+01
          -3.084e+01
          -3.159e+01
          -3.400e+01
          -3.619e+01
          -3.906e+01
          -3.792e+01
          -2.488e+01
          -2.238e+01
          -2.834e+01
          -3.011e+01
          -3.120e+01
          -3.705e+01
          -3.630e+01
          -3.794e+01
          -3.837e+01
          -2.277e+01
          -2.694e+01
          -2.939e+01
          -2.882e+01
          -2.792e+01
          -3.561e+01
          -3.717e+01
          -3.772e+01
          -3.745e+01
          -3.781e+01
          -2.875e+01
          -2.850e+01
          -2.834e+01
          -2.823e+01
          -2.907e+01
          -3.225e+01
          -3.468e+01
          -3.677e+01
          -3.715e+01
          -3.697e+01
          -3.893e+01
          -2.823e+01
          -2.847e+01
          -2.802e+01
          -3.164e+01
          -3.359e+01
          -3.145e+01
          -3.672e+01
          -3.628e+01
          -3.618e+01
          -3.852e+01
          -3.875e+01
          -3.756e+01
          -2.991e+01
          -2.974e+01
          -3.402e+01
          -3.377e+01
          -3.313e+01
          -3.345e+01
          -3.513e+01
          -3.411e+01
          -3.332e+01
          -3.375e+01
          -3.359e+01
          -3.523e+01
          -3.786e+01
          -3.969e+01
          -3.945e+01
          -3.818e+01
          -3.232e+01
          -3.234e+01
          -3.301e+01
          -3.356e+01
          -3.484e+01
          -3.681e+01
          -3.669e+01
          -3.483e+01
          -3.252e+01
          -3.264e+01
          -3.395e+01
          -3.422e+01
          -3.371e+01
          -3.209e+01
          -3.195e+01
          -3.382e+01
          -3.708e+01
          -3.673e+01
          -3.205e+01
          -3.237e+01
          -3.272e+01
          -3.494e+01
          -3.563e+01
          -3.685e+01
          -3.378e+01
          -3.295e+01
          -3.431e+01
          -3.483e+01
          -3.382e+01
          -3.311e+01
          -3.400e+01
          -3.450e+01
          -3.329e+01
          -3.555e+01
          -3.292e+01
          -3.400e+01
          -3.400e+01
          -3.251e+01
          -3.501e+01
          -3.746e+01
          -3.509e+01
          -3.297e+01
          -3.330e+01
          -3.391e+01
          -3.786e+01
          -2.983e+01
          -4.051e+01
          -3.113e+01
          -2.836e+01
          -2.743e+01
          -2.341e+01
          -2.789e+01
          -2.458e+01
          -2.821e+01
          -2.791e+01
          -2.736e+01
          -2.659e+01
          -2.383e+01
          -2.376e+01
          -2.162e+01
          -2.988e+01
          -3.295e+01
          -3.088e+01
          -3.127e+01
          -3.212e+01
          -3.553e+01
          -3.624e+01
          -3.615e+01
          -3.293e+01
          -2.904e+01
          -2.672e+01
          -2.730e+01
          -2.733e+01
          -2.565e+01
          -2.968e+01
          -2.401e+01
          -2.914e+01
          -3.089e+01
          -3.242e+01
          -3.148e+01
          -2.929e+01
          -3.074e+01
          -2.910e+01
          -2.835e+01
          -2.828e+01
          -3.024e+01
          -2.836e+01
          -3.007e+01
          -3.391e+01
          -3.235e+01
          -3.173e+01
          -3.241e+01
          -3.185e+01
          -3.197e+01
          -3.232e+01
          -3.294e+01
          -3.338e+01
          -3.052e+01
          -3.109e+01
          -3.032e+01
          -3.020e+01
          -3.303e+01
          -3.193e+01
          -3.256e+01
          -3.056e+01
          -3.024e+01
          -2.980e+01
          -3.027e+01
          -3.088e+01
          -3.059e+01
          -3.040e+01
          -3.010e+01
          -3.140e+01
          -3.080e+01
          -3.075e+01
          -3.179e+01
          -3.397e+01
          -3.092e+01
          -3.160e+01
          -2.925e+01
          -2.952e+01
          -2.986e+01
          -2.907e+01
          -2.920e+01
          -3.437e+01
          -3.526e+01
          -3.590e+01
          -3.409e+01
          -3.535e+01
          -3.251e+01
          -3.210e+01
          -3.266e+01
          -3.072e+01
          -3.139e+01
          -3.379e+01
          -3.476e+01
          -3.541e+01
          -3.407e+01
          -3.496e+01
          -3.316e+01
          -3.152e+01
          -3.292e+01
          -3.546e+01
          -3.818e+01
          -3.719e+01
          -3.192e+01
          -2.999e+01
          -3.153e+01
          -3.241e+01
          -3.431e+01
          -3.683e+01
          -3.892e+01
          -3.760e+01
          -3.786e+01
          -3.612e+01
          -3.182e+01
          -3.338e+01
          -3.048e+01
          -3.741e+01
          -3.513e+01
          -3.574e+01
          -3.629e+01
          -3.502e+01
          -3.671e+01
          -3.416e+01
          -3.573e+01
          -3.530e+01
          -3.934e+01
          -3.570e+01
          -3.894e+01
          -3.365e+01
          -3.606e+01
          -3.298e+01
          -3.733e+01
          -3.938e+01
          -4.092e+01
          -3.239e+01
          -3.280e+01
          -3.202e+01
          -3.700e+01
          -3.885e+01
          -3.939e+01
          -3.296e+01
          -3.264e+01
          -3.238e+01
          -3.658e+01
          -3.865e+01
          -3.875e+01
          -3.424e+01
          -3.440e+01
          -3.336e+01
          -3.323e+01
          -3.266e+01
          -3.466e+01
          -3.824e+01
          -3.855e+01
          -3.316e+01
          -3.122e+01
          -3.406e+01
          -3.437e+01
          -3.315e+01
          -3.541e+01
          -3.883e+01
          -3.271e+01
          -2.796e+01
          -3.360e+01
          -3.225e+01
          -3.514e+01
          -3.245e+01
          -3.851e+01
          -3.441e+01
          -3.050e+01
          -3.249e+01
          -3.105e+01
          -3.783e+01
          -3.291e+01
          -3.409e+01
          -3.274e+01
          -2.993e+01
          -3.407e+01