<?xml version="1.0"?>
<VTKFile type="UnstructuredGrid" version="0.1" byte_order="LittleEndian" compressor="vtkZLibDataCompressor">
  <UnstructuredGrid>
    <Piece NumberOfPoints="7512" NumberOfCells="15020">
      <Points>
        <DataArray type="Float32" NumberOfComponents="3" format="ascii">
          -6.464e+01 -4.394e+02 -1.679e+03
          -6.545e+01 -5.479e+02 -1.646e+03
          -1.117e+02 -4.973e+02 -1.659e+03
          1.743e+01 -4.388e+02 -1.678e+03
          -1.977e+01 -5.021e+02 -1.660e+03
          9.405e+01 -4.446e+02 -1.676e+03
          5.486e+01 -5.138e+02 -1.658e+03
          1.336e+02 -5.148e+02 -1.653e+03
          -2.609e+02 -3.731e+02 -1.675e+03
          -2.265e+02 -4.425e+02 -1.666e+03
          -3.032e+02 -4.443e+02 -1.652e+03
          -1.835e+02 -3.697e+02 -1.686e+03
          -1.490e+02 -4.369e+02 -1.673e+03
          -1.033e+02 -3.707e+02 -1.693e+03
          -2.362e+01 -3.707e+02 -1.696e+03
          5.601e+01 -3.712e+02 -1.695e+03
          1.330e+02 -3.736e+02 -1.690e+03
          1.708e+02 -4.459e+02 -1.670e+03
          2.089e+02 -3.717e+02 -1.683e+03
          2.442e+02 -4.410e+02 -1.660e+03
          3.188e+02 -4.372e+02 -1.647e+03
          -2.934e+02 -3.032e+02 -1.684e+03
          -3.384e+02 -3.746e+02 -1.662e+03
          -3.685e+02 -3.017e+02 -1.669e+03
          -2.175e+02 -3.000e+02 -1.697e+03
          -1.394e+02 -2.992e+02 -1.704e+03
          -6.129e+01 -2.993e+02 -1.709e+03
          1.698e+01 -2.991e+02 -1.708e+03
          9.512e+01 -3.003e+02 -1.709e+03
          1.719e+02 -3.000e+02 -1.702e+03
          2.480e+02 -2.986e+02 -1.693e+03
          3.230e+02 -2.943e+02 -1.679e+03
          2.856e+02 -3.689e+02 -1.673e+03
          3.616e+02 -3.619e+02 -1.660e+03
          -3.992e+02 -2.287e+02 -1.675e+03
          -4.438e+02 -2.961e+02 -1.652e+03
          -4.713e+02 -2.193e+02 -1.656e+03
          -3.246e+02 -2.315e+02 -1.691e+03
          -2.510e+02 -2.283e+02 -1.704e+03
          -1.749e+02 -2.266e+02 -1.713e+03
          -9.786e+01 -2.260e+02 -1.719e+03
          -2.073e+01 -2.258e+02 -1.722e+03
          5.683e+01 -2.263e+02 -1.721e+03
          1.343e+02 -2.274e+02 -1.717e+03
          2.124e+02 -2.260e+02 -1.709e+03
          2.889e+02 -2.250e+02 -1.697e+03
          3.689e+02 -2.250e+02 -1.683e+03
          3.986e+02 -2.952e+02 -1.663e+03
          4.640e+02 -2.984e+02 -1.647e+03
          -3.573e+02 -1.600e+02 -1.692e+03
          -4.339e+02 -1.537e+02 -1.674e+03
          -2.858e+02 -1.547e+02 -1.706e+03
          -2.113e+02 -1.526e+02 -1.715e+03
          -1.348e+02 -1.518e+02 -1.725e+03
          -5.839e+01 -1.505e+02 -1.728e+03
          1.844e+01 -1.511e+02 -1.729e+03
          9.583e+01 -1.524e+02 -1.727e+03
          1.733e+02 -1.547e+02 -1.721e+03
          2.523e+02 -1.509e+02 -1.712e+03
          3.268e+02 -1.550e+02 -1.699e+03
          4.045e+02 -1.546e+02 -1.684e+03
          4.491e+02 -2.241e+02 -1.664e+03
          -4.607e+02 -7.124e+01 -1.673e+03
          -5.042e+02 -1.453e+02 -1.655e+03
          -5.388e+02 -8.725e+01 -1.648e+03
          -3.939e+02 -9.382e+01 -1.690e+03
          -3.234e+02 -7.977e+01 -1.705e+03
          -2.525e+02 -7.800e+01 -1.717e+03
          -1.742e+02 -7.862e+01 -1.727e+03
          -9.672e+01 -7.487e+01 -1.733e+03
          -2.020e+01 -7.467e+01 -1.735e+03
          5.747e+01 -7.640e+01 -1.734e+03
          1.356e+02 -7.867e+01 -1.728e+03
          2.122e+02 -8.302e+01 -1.723e+03
          2.973e+02 -7.633e+01 -1.709e+03
          3.707e+02 -8.965e+01 -1.692e+03
          4.481e+02 -7.292e+01 -1.677e+03
          4.687e+02 -1.470e+02 -1.664e+03
          5.245e+02 -1.060e+02 -1.649e+03
          -4.501e+02 1.160e+01 -1.677e+03
          -5.186e+02 -2.059e+01 -1.658e+03
          -3.842e+02 -2.258e+01 -1.694e+03
          -3.071e+02 1.152e+00 -1.710e+03
          -2.194e+02 -9.265e+00 -1.723e+03
          -1.381e+02 -2.408e+00 -1.731e+03
          -5.848e+01 3.149e+00 -1.735e+03
          1.842e+01 9.010e-02 -1.737e+03
          9.910e+01 -3.167e+00 -1.733e+03
          1.731e+02 -2.426e+00 -1.727e+03
          2.468e+02 -1.898e+01 -1.717e+03
          3.124e+02 1.118e+01 -1.711e+03
          3.808e+02 -2.143e+01 -1.693e+03
          4.513e+02 9.329e+00 -1.679e+03
          5.182e+02 -3.180e+01 -1.659e+03
          -4.482e+02 8.953e+01 -1.676e+03
          -5.196e+02 5.349e+01 -1.656e+03
          -3.778e+02 5.410e+01 -1.694e+03
          -3.149e+02 9.258e+01 -1.706e+03
          -2.534e+02 5.619e+01 -1.717e+03
          -1.783e+02 6.728e+01 -1.726e+03
          -9.890e+01 7.506e+01 -1.732e+03
          -1.572e+01 8.118e+01 -1.734e+03
          6.539e+01 6.686e+01 -1.734e+03
          1.527e+02 7.976e+01 -1.726e+03
          2.342e+02 5.489e+01 -1.722e+03
          3.055e+02 9.170e+01 -1.708e+03
          3.800e+02 5.528e+01 -1.695e+03
          4.487e+02 8.759e+01 -1.673e+03
          5.212e+02 4.621e+01 -1.658e+03
          -5.195e+02 1.281e+02 -1.653e+03
          -4.511e+02 1.653e+02 -1.668e+03
          -3.800e+02 1.398e+02 -1.688e+03
          -3.038e+02 1.716e+02 -1.701e+03
          -2.360e+02 1.307e+02 -1.715e+03
          -1.536e+02 1.427e+02 -1.724e+03
          -6.951e+01 1.505e+02 -1.729e+03
          1.213e+01 1.624e+02 -1.728e+03
          8.756e+01 1.351e+02 -1.730e+03
          1.601e+02 1.657e+02 -1.721e+03
          2.292e+02 1.298e+02 -1.717e+03
          3.013e+02 1.707e+02 -1.701e+03
          3.759e+02 1.318e+02 -1.691e+03
          4.464e+02 1.649e+02 -1.671e+03
          5.179e+02 1.223e+02 -1.653e+03
          -3.683e+02 2.228e+02 -1.683e+03
          -4.438e+02 2.335e+02 -1.663e+03
          -2.831e+02 2.432e+02 -1.696e+03
          -2.148e+02 2.035e+02 -1.712e+03
          -1.269e+02 2.152e+02 -1.718e+03
          -4.727e+01 2.293e+02 -1.720e+03
          2.482e+01 2.439e+02 -1.720e+03
          8.900e+01 2.116e+02 -1.720e+03
          1.561e+02 2.482e+02 -1.712e+03
          2.295e+02 2.114e+02 -1.709e+03
          2.998e+02 2.507e+02 -1.692e+03
          3.723e+02 2.086e+02 -1.684e+03
          4.409e+02 2.411e+02 -1.662e+03
          -4.147e+02 2.980e+02 -1.661e+03
          -3.833e+02 3.671e+02 -1.653e+03
          -3.363e+02 2.987e+02 -1.677e+03
          -2.501e+02 3.123e+02 -1.690e+03
          -1.814e+02 2.712e+02 -1.706e+03
          -9.657e+01 2.931e+02 -1.710e+03
          -1.089e+01 3.115e+02 -1.709e+03
          8.110e+01 2.996e+02 -1.709e+03
          1.576e+02 3.215e+02 -1.699e+03
          2.287e+02 2.920e+02 -1.697e+03
          2.940e+02 3.310e+02 -1.680e+03
          3.679e+02 2.863e+02 -1.673e+03
          4.387e+02 3.150e+02 -1.651e+03
          -3.071e+02 3.707e+02 -1.669e+03
          -2.909e+02 4.446e+02 -1.653e+03
          -2.299e+02 3.883e+02 -1.677e+03
          -1.675e+02 3.420e+02 -1.695e+03
          -9.098e+01 3.681e+02 -1.693e+03
          -2.253e+01 3.862e+02 -1.692e+03
          5.235e+01 3.742e+02 -1.695e+03
          1.298e+02 3.839e+02 -1.689e+03
          2.172e+02 3.756e+02 -1.682e+03
          2.938e+02 4.048e+02 -1.664e+03
          3.672e+02 3.609e+02 -1.659e+03
          -2.174e+02 4.615e+02 -1.661e+03
          -1.502e+02 4.170e+02 -1.677e+03
          -1.466e+02 4.903e+02 -1.660e+03
          -7.196e+01 4.503e+02 -1.676e+03
          1.251e+01 4.508e+02 -1.675e+03
          8.954e+01 4.506e+02 -1.676e+03
          1.413e+02 5.180e+02 -1.652e+03
          1.676e+02 4.486e+02 -1.670e+03
          2.338e+02 4.535e+02 -1.661e+03
          -8.685e+01 5.261e+02 -1.654e+03
          -1.943e+01 5.200e+02 -1.657e+03
          5.884e+01 5.191e+02 -1.657e+03
          -2.136e+02 -6.589e+02 -1.594e+03
          -2.291e+02 -7.224e+02 -1.560e+03
          -2.820e+02 -6.601e+02 -1.581e+03
          -1.540e+02 -6.317e+02 -1.610e+03
          -1.508e+02 -7.114e+02 -1.575e+03
          -9.635e+01 -6.712e+02 -1.600e+03
          -5.881e+01 -7.194e+02 -1.577e+03
          -1.827e+01 -6.531e+02 -1.608e+03
          2.139e+01 -7.131e+02 -1.583e+03
          5.584e+01 -6.461e+02 -1.612e+03
          9.880e+01 -7.097e+02 -1.580e+03
          1.326e+02 -6.440e+02 -1.607e+03
          1.748e+02 -7.049e+02 -1.577e+03
          2.120e+02 -6.442e+02 -1.596e+03
          2.247e+02 -7.456e+02 -1.550e+03
          2.676e+02 -6.820e+02 -1.573e+03
          -3.832e+02 -5.695e+02 -1.594e+03
          -4.122e+02 -6.461e+02 -1.559e+03
          -4.507e+02 -5.915e+02 -1.569e+03
          -2.988e+02 -5.792e+02 -1.609e+03
          -3.451e+02 -6.279e+02 -1.582e+03
          -2.239e+02 -5.841e+02 -1.619e+03
          -1.451e+02 -5.660e+02 -1.635e+03
          -7.428e+01 -6.079e+02 -1.625e+03
          8.561e+00 -5.801e+02 -1.635e+03
          9.081e+01 -5.802e+02 -1.634e+03
          1.724e+02 -5.809e+02 -1.626e+03
          2.531e+02 -5.853e+02 -1.614e+03
          3.225e+02 -5.596e+02 -1.609e+03
          3.214e+02 -6.307e+02 -1.588e+03
          3.884e+02 -5.786e+02 -1.592e+03
          4.003e+02 -6.475e+02 -1.560e+03
          4.585e+02 -6.020e+02 -1.563e+03
          -5.024e+02 -4.859e+02 -1.589e+03
          -5.013e+02 -5.555e+02 -1.568e+03
          -5.614e+02 -5.224e+02 -1.558e+03
          -4.301e+02 -5.105e+02 -1.603e+03
          -3.456e+02 -5.110e+02 -1.623e+03
          -2.665e+02 -5.133e+02 -1.637e+03
          -1.913e+02 -5.086e+02 -1.646e+03
          2.121e+02 -5.163e+02 -1.644e+03
          2.855e+02 -5.057e+02 -1.634e+03
          3.706e+02 -4.993e+02 -1.619e+03
          4.437e+02 -5.281e+02 -1.594e+03
          5.109e+02 -4.859e+02 -1.587e+03
          5.144e+02 -5.576e+02 -1.562e+03
          5.767e+02 -5.153e+02 -1.553e+03
          -5.762e+02 -3.866e+02 -1.591e+03
          -5.885e+02 -4.626e+02 -1.566e+03
          -6.423e+02 -4.111e+02 -1.559e+03
          -5.239e+02 -4.229e+02 -1.600e+03
          -4.515e+02 -4.317e+02 -1.620e+03
          -3.807e+02 -4.439e+02 -1.635e+03
          3.878e+02 -4.259e+02 -1.638e+03
          4.450e+02 -4.551e+02 -1.616e+03
          5.087e+02 -4.140e+02 -1.609e+03
          5.759e+02 -3.809e+02 -1.592e+03
[...]
      <PointData Scalars="depth (km)">
        <DataArray type="Float32" Name="depth (km)" NumberOfComponents="1" format="ascii">
          -7.499e-02
          -1.048e+00
          -1.684e+00
          -2.557e+00
          -2.303e+00
          -7.307e-01
          -2.553e-01
          -4.138e-01
          -1.369e+00
          1.038e+00
          -1.897e-01
          -8.934e-01
          -1.577e+00
          -8.548e-01
          -9.570e-01
          -7.514e-01
          -8.890e-01
          -6.438e-01
          -1.048e+00
          -2.208e+00
          -3.078e+00
          -7.329e-01
          -4.191e-01
          -1.137e+00
          -5.957e-01
          -1.401e+00
          -8.769e-01
          -2.827e+00
          2.998e-01
          -7.530e-01
          -4.616e-01
          -2.346e+00
          -5.249e-02
          -2.228e-01
          -3.066e-01
          -8.233e-01
          -1.115e+00
          1.090e-02
          4.068e-01
          -5.966e-01
          -4.901e-01
          -3.653e-01
          -4.118e-01
          -3.609e-01
          -5.630e-01
          -6.438e-01
          7.059e-01
          -2.183e+00
          1.710e-01
          -3.023e-01
          -1.162e+00
          -3.899e-01
          -2.393e+00
          -3.371e-01
          -1.791e+00
          -1.249e+00
          -7.143e-01
          -2.646e-01
          6.649e-02
          -2.404e-01
          1.538e+00
          1.107e+00
          -8.781e-01
          -8.963e-01
          -1.311e+00
          4.089e-01
          4.104e-01
          -3.849e-01
          7.907e-01
          6.108e-01
          -4.548e-01
          -6.671e-01
          -2.168e+00
          4.788e-01
          -1.159e+00
          -2.444e+00
          -2.679e-01
          -1.778e+00
          -3.579e+00
          -2.877e-01
          -1.371e-02
          4.210e-02
          -1.865e-01
          -3.188e-01
          -1.131e+00
          -1.233e+00
          -5.042e-02
          -1.348e+00
          -1.707e+00
          -2.125e+00
          2.000e+00
          -1.321e+00
          1.242e+00
          1.420e+00
          3.058e-01
          -1.110e+00
          -2.834e-01
          -2.729e-02
          -3.534e-01
          -9.253e-01
          -7.726e-01
          -1.560e+00
          -7.295e-01
          -2.653e+00
          1.251e+00
          6.612e-02
          9.029e-01
          -2.915e+00
          1.368e+00
          -7.937e-02
          -1.460e+00
          -8.075e-01
          -7.813e-01
          -7.725e-01
          -8.184e-01
          -3.720e-01
          -1.262e+00
          3.942e-01
          -1.109e+00
          2.169e-01
          -1.180e+00
          -1.556e-01
          1.572e-01
          -4.216e-01
          -3.196e-01
          -6.338e-01
          -8.613e-01
          -1.967e-01
          -7.264e-01
          -1.749e+00
          -2.490e-01
          -2.227e+00
          -6.704e-01
          -2.568e-01
          -5.657e-01
          1.999e-01
          -4.145e-01
          2.184e-01
          -1.062e+00
          -6.111e-01
          -7.597e-01
          -2.201e-01
          5.705e-01
          -4.314e-01
          2.485e-01
          -7.799e-01
          -3.578e-01
          8.600e-02
          1.938e-02
          -3.932e-01
          -3.751e-01
          -5.358e-01
          -2.792e-01
          -3.917e-02
          -2.000e+00
          -1.379e+00
          -2.467e-01
          -2.334e-01
          -3.740e-01
          1.847e-01
          3.860e-01
          1.456e-01
          -2.978e+00
          2.640e-01
          -6.072e-01
          -2.114e+00
          4.011e-01
          -4.467e-01
          -1.035e-01
          8.074e-01
          6.146e-01
          -3.980e-02
          1.750e-01
          9.304e-01
          -2.589e+00
          -9.122e-01
          -7.589e-01
          -2.474e+00
          3.502e-01
          -2.618e+00
          -1.525e+00
          -6.610e-01
          3.505e-01
          -1.912e+00
          -6.959e-01
          -8.777e-01
          -3.121e+00
          -2.605e+00
          -2.159e+00
          -1.632e+00
          -3.335e-01
          -7.884e-01
          -1.038e+00
          -5.069e-01
          -1.571e+00
          -1.012e+00
          -6.033e-01
          -2.429e+00
          -6.022e-01
          -1.682e+00
          -2.140e+00
          -3.120e+00
          1.261e+00
          2.840e-01
          -1.065e+00
          -1.029e+00
          -1.208e+00
          1.978e-01
          -4.698e-01
          -9.097e-01
          -7.274e-01
          -8.749e-01
          -3.837e+00
          -1.184e+00
          -3.081e+00
          -3.251e+00
          -4.360e-01
          -7.108e-01
          -2.471e-01
          -1.868e+00
          -1.531e+00
          -1.162e+00
          -1.280e+00
          -1.358e+00
          -9.827e-01
          -8.379e-01
          -5.800e-01
          -5.094e-01
          3.201e-01
          -1.438e+00
          -2.144e+00
          1.329e+00
          -6.349e-01
          -7.201e-01
          -6.553e-01
          -1.959e-01
          -5.198e-01
          -1.096e+00
          1.768e-01
          -1.557e-01
          -9.191e-01
          -1.397e+00
          -3.195e-01
          -9.080e-01
          -7.323e-01
          2.235e-01
          -3.033e+00
          -7.285e-01
          -1.905e-01
          6.245e-03
          -1.140e+00
          -1.067e+00
          -3.553e-01
          -1.168e+00
          1.647e-01
          -5.860e-01
          -1.183e-01
          1.242e+00
          -1.577e+00
          -1.262e+00
          2.650e-01
          4.389e-01
          -8.920e-02
          5.294e-01
          -5.658e-01
          -1.390e+00
          -5.780e-01
          1.221e+00
          9.466e-01
          -6.787e-02
          -1.053e+00
          -1.142e+00
          -7.346e-01
          -1.523e+00
          7.402e-01
          1.087e+00
          -1.343e+00
          -1.587e+00
          -6.360e-01
          -1.300e+00
          -1.206e-01
          5.600e-02
          1.226e+00
          1.816e+00
          -1.604e+00
          -2.116e+00
          -2.249e+00
          -2.242e-01
          3.128e-01
          -1.491e+00
          1.243e+00
          -1.659e+00
          -2.372e+00
          -1.829e+00
          -1.245e+00
          -1.145e+00
          -7.576e-01
          1.205e-01
          7.606e-01
          2.076e+00
          2.493e+00
          1.824e+00
          -1.296e+00
          -1.894e+00
          -1.088e+00
          -7.804e-01
          4.542e-02
          -1.353e+00
          -4.736e-03
          2.084e+00
          1.584e+00
          2.601e+00
          -1.066e+00
          -1.646e+00
          -8.499e-01
          -1.733e+00
          -1.023e+00
          -1.586e-01
          -1.082e+00
          1.578e-01
          1.381e-01
          -1.373e+00
          1.271e+00
          6.268e-01
          2.964e+00
          -1.145e+00
          -7.590e-01
          -2.449e-01
          -7.094e-01
          -1.538e+00
          -2.685e-01
          -1.823e+00
          -5.798e-01
          5.674e-01
          -3.990e+00
          -7.212e-01
          1.174e-01
          -1.862e-01
          1.029e+00
          9.476e-02
          1.895e+00
          8.662e-01
          2.091e-01
          -7.877e-02
          -8.406e-01
          -1.121e-02
          -6.951e-01
          -1.159e+00
          9.065e-01
          -3.329e-01
          -1.017e-01
          -1.667e-01
          5.980e-01
          2.123e-01
          -1.448e+00
          -1.054e+00
          -2.351e-01
          4.367e-01
          -1.006e-01
          1.164e-01
          -2.862e-01
          -3.784e+00
          -3.668e+00
          -2.167e+00
          -3.792e+00
          -4.050e+00
          -3.859e+00
          -3.898e+00
          -3.415e+00
          -3.911e+00
          -3.048e+00
          -3.408e+00
          -2.458e+00
          -2.384e+00
          -3.246e+00
          -1.501e+00
          -1.728e+00
          -2.438e+00
          -1.892e+00
          8.094e-01
          -1.837e+00
          -4.848e+00
          -2.174e+00
          -2.969e+00
          -6.668e-01
          -3.014e+00
          -3.838e+00
          -1.660e+00
          -2.930e+00
          -1.534e+00
          -1.875e+00
          -1.224e+00
          -1.253e+00
          -1.471e+00
          -3.205e+00
          -1.348e+00
          -1.243e+00
          -1.302e+00
          -1.620e+00
          -1.212e+00
          -9.563e-01
          6.821e-02
          -2.155e-01
          -2.142e+00
          -1.085e+00
          -1.151e+00
          -1.375e+00
          -1.186e+00
          -1.593e-03
          -8.066e-02
          -8.300e-01
          -9.354e-01
          -1.539e+00
          -1.458e+00
          -2.100e+00
          -1.472e+00
          7.290e-01
          -1.505e-01
          1.097e+00
          1.729e+00
          -1.563e+00
          -2.083e+00
          -2.116e+00
          -1.620e+00
          5.316e-01
          6.563e-01
          4.791e-02
          8.743e-01
          -1.387e+00
          -1.687e+00
          -1.069e+00
          2.378e-01
          1.464e+00
          3.041e+00
          -1.214e+00
          -2.025e+00
          -2.439e+00
          -1.770e+00
          1.747e+00
          3.234e+00
          -1.360e+00
          1.208e-02
          -1.438e+00
          -2.172e+00
          -1.344e+00
          -1.115e+00
          -7.584e-01
          9.180e-01
          -2.171e+00
          -2.452e+00
          -1.499e+00
          1.265e+00
          1.286e+00
          1.460e+00
          -2.254e+00
          -2.289e+00
          -2.666e+00
          -1.598e+00
          1.187e+00
          1.163e+00
          -2.100e+00
          -2.177e+00
          -1.330e+00
          1.936e+00
          1.545e+00
          1.775e+00
          -2.223e+00
          -2.407e+00
          -2.406e+00
          1.534e+00
          1.147e+00
          2.081e+00
          -2.467e+00
          -2.495e+00
          -2.433e+00
          2.122e+00
          2.016e+00
          3.080e+00
          -2.572e+00
          -2.369e+00
          -2.604e+00
          -2.230e+00
          2.780e+00
          3.342e+00
          4.518e+00
          -1.385e+00
          -2.396e+00
          -2.543e+00
          -2.228e+00
          -3.360e+00
          1.306e-01
          -1.909e-02
          -2.308e+00
          -2.297e+00
          -8.628e-01
          -2.083e+00
          2.348e+00
          -1.167e+00
          -1.245e+00
          -7.086e-01
          -2.205e+00
          -1.566e+00
          -1.984e+00
          -1.131e+00
          2.680e-01
          1.372e+00
          2.649e+00
          -1.066e+00
          -3.546e-01
          -9.276e-01
          -6.173e-01
          -6.947e-01
          -2.758e+00
          1.262e+00
          -2.673e-01
          2.718e+00
          1.174e+00
          3.136e+00
          -3.031e+00
          -1.604e+00
          -6.955e-01
          -7.386e-01
          -1.623e+00
          -2.482e+00
          -7.832e-01
          -7.654e-01
          -1.261e-01
          -1.336e-01
          1.262e+00
          3.804e-01
          -1.632e+00
          1.015e+00
          1.249e-01
          -8.006e-01
          -1.136e+00
          -1.470e+00
          -3.066e+00
          -6.719e-01
          -2.575e-01
          3.169e-01
          -1.803e+00
          -4.891e-01
          1.116e+00
          7.118e-01
          1.198e+00
          8.800e-01
          -1.337e+00
          -3.010e+00
          -5.275e-01
          5.237e-01
          -2.501e-01
          -9.953e-01
          -2.584e+00
          -2.558e+00
          -2.555e+00
          -2.845e+00
          -3.098e+00
          -2.622e+00
          -3.912e+00
          -3.619e+00
          -4.150e+00
          -3.539e+00
          -3.806e+00
          -1.996e+00
          -1.076e+00
          -2.662e+00
          -1.170e+00
          4.094e-01
          -2.987e+00
          -1.867e+00
          -3.056e+00
          -3.831e-01
          -2.450e+00
          -1.393e+00
          -1.677e-01
          -2.824e+00
          -1.705e+00
          -1.319e-02
          -2.507e+00
          -1.236e+00
          -1.240e+00
          -1.516e+00
          -9.571e-01
          -1.829e+00
          -8.898e-01
          -5.162e-01
          -1.874e+00
          -5.860e-01
          -1.547e+00
          -4.409e-01
          -8.520e-01
          -4.881e-01
          -8.598e-01
          -1.641e+00
          -1.447e+00
          -1.571e+00
          -1.364e+00
          -1.348e+00
          9.009e-02
          3.751e-01
          2.342e-01
          -1.951e+00
          -2.271e+00
          -2.291e+00
          -1.884e+00
          -9.994e-01
          7.453e-01
          1.821e-01
          3.191e-01
          -2.246e+00
          -2.345e+00
          -2.546e+00
          -2.229e+00
          -2.284e+00
          3.625e-01
          6.560e-01
          1.034e+00
          -2.275e+00
          -2.464e+00
          7.679e-01
          2.393e+00
          -2.475e+00
          -2.446e+00
          -2.452e+00
          -2.465e+00
          2.283e+00
          2.963e+00
          2.092e+00
          -6.627e-02
          -2.661e+00
          -2.302e+00
          2.914e+00
          -3.410e-01
          -2.589e+00
          -2.613e+00
          1.851e+00
          2.599e+00
          -2.424e+00
          -2.687e+00
          1.085e+00
          1.838e+00
          -2.460e+00
          -2.378e+00
          1.359e+00
          1.200e+00
          1.555e+00
          8.891e-01
          -2.260e+00
          -1.803e+00
          2.320e+00
          -2.547e-01
          1.379e+00
          -2.238e+00
          -1.542e+00
          2.570e+00
          2.903e+00
          5.934e-02
          -2.406e+00
          -1.798e+00
          -1.397e+00
          2.485e+00
          -2.439e+00
          -2.209e+00
          -2.488e+00
          3.141e+00
          -1.128e+00
          1.052e+00
          -2.482e+00
          -2.442e+00
          -2.543e+00
          2.902e+00
          1.002e+00
          2.853e+00
          -2.309e+00
          -2.875e+00
          -2.309e+00
          -1.601e-01
          -1.891e+00
          3.612e+00
          -1.879e+00
          -2.334e+00
          -2.305e+00
          -2.202e+00
          -5.779e-01
          -5.397e-01
          8.334e-01
          1.429e+00
          -2.460e+00
          -2.275e+00
          -2.151e+00
          -2.062e+00
          2.736e+00
          3.548e+00
          3.799e+00
          4.374e+00
          -2.238e+00
          -2.050e+00
          -2.108e+00
          -1.070e+00
          8.365e-01
          1.714e+00
          1.314e+00
          3.127e+00
          2.047e+00
          -2.215e+00
          -2.133e+00
          -1.544e+00
          -1.845e+00
          -1.613e+00
          -5.614e-02
          -1.222e+00
          1.426e+00
          -1.032e+00
          -2.575e+00
          -1.738e+00
          -1.963e+00
          -1.754e+00
          -1.509e+00
          -1.005e+00
          -6.641e-01
          -1.407e+00
          -9.859e-01
          -6.483e-01
          -9.349e-01
          -6.691e-01
          8.373e-01
          9.905e-01
          1.457e+00
          -6.735e-02
          -1.722e+00
          5.053e-01
          -2.450e+00
          -1.262e+00
          -4.983e-01
          1.220e+00
          1.477e+00
          6.853e-01
          7.619e-01
          -2.737e+00
          1.429e-01
          -2.522e+00
          -1.757e+00
          -6.797e-01
          -1.597e+00
          -9.536e-01
          -7.539e-02
          -6.721e-02
          6.194e-01
          5.348e-01
          -1.761e+00
          -1.786e+00
          1.150e+00
          6.029e-01
          -1.810e+00
          -8.630e-01
          -2.521e+00
          -2.303e+00
          -1.377e+00
          -1.464e+00
          -3.076e+00
          -2.585e+00
          -1.119e+00
          -1.011e+00
          5.731e-02
          -4.915e-01
          8.530e-01
          -9.420e-01
          1.250e+00
          -4.581e-01
          3.514e-01
          -6.945e-01
          -1.402e+00
          -3.954e-01
          -9.640e-01
          -2.732e-01
          -1.482e+00
          -1.494e+00
          -8.059e-01
          -1.295e+00
          -8.946e-01
          -1.279e+00
          -9.664e-01
          -1.258e+00
          -1.749e+00
          -2.088e-01
          -1.311e+00
          -3.245e+00
          -3.465e+00
          -2.949e-01
          -1.216e+00
          -1.704e+00
          -1.554e+00
          -1.509e+00
          8.638e-02
          5.250e-01
          -5.975e-01
          2.316e-01
          -2.263e+00
          -1.879e+00
          -2.260e+00
          -2.133e+00
          1.832e-01
          9.126e-01
          4.622e-01
          -8.067e-01
          -2.274e+00
          -2.078e+00
          -1.973e+00
          -2.270e+00
          8.183e-01
          1.793e+00
          3.963e-01
          3.385e+00
          -2.389e+00
          -2.138e+00
          2.665e+00
          2.393e+00
          -2.249e+00
          -1.606e+00
          -2.061e+00
          -2.289e+00
          2.100e+00
          1.463e+00
          -5.599e-01
          3.234e+00
          -1.477e+00
          -3.084e+00
          -1.213e+00
          -2.095e+00
          -2.501e+00
          -2.067e+00
          -8.854e-01
          -8.746e-01
          -2.594e+00
          -2.645e+00
          -2.257e+00
          -2.770e+00
          2.227e+00
          1.930e+00
          1.027e-01
          2.116e+00
          -1.637e+00
          -1.848e+00
          -2.086e+00
          1.421e+00
          9.680e-01
          1.893e+00
          -1.548e+00
          -1.889e+00
          -8.625e-01
          1.007e+00
          1.125e+00
          -1.742e+00
          -1.820e+00
          -1.199e+00
          -1.383e+00
          7.820e-01
          -1.163e+00
          -2.764e+00
          -2.409e+00
          2.766e+00
          9.357e-01
          2.182e+00
          -2.732e+00
          -2.618e+00
          -2.323e+00
          1.888e+00
          2.642e+00
          2.349e+00
          -2.675e+00
          -2.715e+00
          1.223e+00
          3.255e+00
          -2.195e+00
          -2.795e+00
          -2.401e+00
          3.572e+00
          -2.378e-01
          2.946e+00
          -2.738e+00
          -1.431e+00
          -1.790e+00
          3.193e+00
          1.428e+00
          2.488e+00
          -1.839e+00
          -2.735e-01
          -2.064e+00
          -5.402e-02
          3.616e+00
          2.201e+00
          -2.297e-01
          -1.737e+00
          -2.438e+00
          -2.367e+00
          4.240e+00
          3.332e+00
          4.189e+00
          -2.304e+00
          -2.275e+00
          -2.024e+00
          -2.244e+00
          1.388e+00
          1.769e+00
          2.362e+00
          3.219e+00
          -2.263e+00
          -1.979e+00
          -2.247e+00
          -2.285e+00
          -1.910e+00
          9.057e-01
          1.479e+00
          1.978e+00
          -1.947e+00
          -2.186e+00
          -2.216e+00
          -2.233e+00
          -2.024e+00
          1.425e+00
          -7.724e-01
          -1.781e+00
          -1.539e+00
          -6.138e-01
          -2.206e+00
          -2.248e+00
          -2.161e+00
          -2.067e+00
          -1.635e+00
          -5.513e-01
          -1.431e+00
          -4.111e-01
          -8.615e-01
          -3.945e-01
          1.235e+00
          1.116e+00
          1.198e+00
          1.391e+00
          1.442e+00
          3.951e-01
          -2.498e+00
          -1.922e+00
          -1.961e+00
          -5.890e-01
          2.036e-01
          -4.175e-02
          7.173e-01
          5.711e-01
          2.693e-01
          1.593e+00
          -7.083e-01
          1.760e-01
          1.113e+00
          1.539e+00
          -1.543e+00
          -8.876e-01
          3.022e-01
          -3.832e-01
          -1.646e-01