<?xml version="1.0"?>
<VTKFile type="UnstructuredGrid" version="0.1" byte_order="LittleEndian" compressor="vtkZLibDataCompressor">
  <UnstructuredGrid>
    <Piece NumberOfPoints="21030" NumberOfCells="42056">
      <Points>
        <DataArray type="Float32" NumberOfComponents="3" format="ascii">
          -8.795e+01 -1.859e+02 -1.723e+03
          -1.017e+02 -2.350e+02 -1.718e+03
          -1.316e+02 -1.965e+02 -1.721e+03
          -4.174e+01 -1.797e+02 -1.727e+03
          -5.435e+01 -2.268e+02 -1.721e+03
          5.599e+00 -1.733e+02 -1.728e+03
          -7.167e+00 -2.197e+02 -1.723e+03
          5.361e+01 -1.648e+02 -1.729e+03
          4.031e+01 -2.110e+02 -1.724e+03
          8.803e+01 -1.979e+02 -1.724e+03
          7.562e+01 -2.458e+02 -1.718e+03
          1.234e+02 -2.330e+02 -1.718e+03
          -1.277e+02 -1.426e+02 -1.726e+03
          -1.674e+02 -1.747e+02 -1.720e+03
          -1.788e+02 -1.296e+02 -1.722e+03
          -7.702e+01 -1.387e+02 -1.727e+03
          -2.821e+01 -1.334e+02 -1.731e+03
          1.976e+01 -1.274e+02 -1.732e+03
          6.782e+01 -1.200e+02 -1.730e+03
          1.022e+02 -1.485e+02 -1.727e+03
          1.474e+02 -1.452e+02 -1.724e+03
          1.344e+02 -1.880e+02 -1.721e+03
          1.828e+02 -1.751e+02 -1.717e+03
          -1.998e+02 -8.468e+01 -1.724e+03
          -2.289e+02 -1.211e+02 -1.718e+03
          -2.508e+02 -7.564e+01 -1.717e+03
          -1.498e+02 -9.269e+01 -1.727e+03
          -1.033e+02 -9.560e+01 -1.732e+03
          -5.567e+01 -9.176e+01 -1.733e+03
          -7.901e+00 -8.681e+01 -1.734e+03
          4.059e+01 -8.225e+01 -1.734e+03
          9.272e+01 -8.232e+01 -1.733e+03
          1.343e+02 -1.048e+02 -1.729e+03
          1.839e+02 -8.406e+01 -1.725e+03
          1.875e+02 -1.275e+02 -1.722e+03
          2.298e+02 -1.074e+02 -1.718e+03
          -1.707e+02 -4.547e+01 -1.727e+03
          -2.188e+02 -4.060e+01 -1.723e+03
          -1.243e+02 -4.838e+01 -1.731e+03
          -7.857e+01 -4.781e+01 -1.734e+03
          -3.220e+01 -4.427e+01 -1.735e+03
          1.465e+01 -4.075e+01 -1.736e+03
          6.212e+01 -4.011e+01 -1.735e+03
          1.069e+02 -3.903e+01 -1.733e+03
          1.443e+02 -5.963e+01 -1.729e+03
          1.860e+02 -3.551e+01 -1.728e+03
          2.283e+02 -6.095e+01 -1.721e+03
          -1.907e+02 6.411e-01 -1.726e+03
          -2.358e+02 3.049e+00 -1.721e+03
          -1.446e+02 -1.783e+00 -1.730e+03
          -9.893e+01 -1.979e+00 -1.734e+03
          -5.309e+01 -1.322e-01 -1.735e+03
          -6.415e+00 2.487e+00 -1.737e+03
          4.160e+01 3.546e+00 -1.736e+03
          9.057e+01 3.079e+00 -1.734e+03
          1.420e+02 -8.354e+00 -1.729e+03
          1.903e+02 1.052e+01 -1.727e+03
          2.305e+02 -1.336e+01 -1.719e+03
          -1.681e+02 4.334e+01 -1.728e+03
          -2.183e+02 4.445e+01 -1.722e+03
          -1.205e+02 4.348e+01 -1.732e+03
          -7.397e+01 4.491e+01 -1.734e+03
          -2.759e+01 4.669e+01 -1.735e+03
          1.942e+01 4.772e+01 -1.737e+03
          6.631e+01 4.745e+01 -1.734e+03
          1.117e+02 4.352e+01 -1.730e+03
          1.528e+02 3.564e+01 -1.728e+03
          1.896e+02 6.096e+01 -1.723e+03
          2.311e+02 3.608e+01 -1.723e+03
          -1.881e+02 8.633e+01 -1.724e+03
          -2.335e+02 8.724e+01 -1.718e+03
          -1.415e+02 8.776e+01 -1.728e+03
          -9.479e+01 8.956e+01 -1.732e+03
          -4.795e+01 9.155e+01 -1.735e+03
          -6.978e-01 9.206e+01 -1.733e+03
          4.781e+01 9.170e+01 -1.733e+03
          9.696e+01 8.983e+01 -1.729e+03
          1.432e+02 8.290e+01 -1.727e+03
          1.814e+02 1.081e+02 -1.723e+03
          2.282e+02 8.599e+01 -1.721e+03
          -2.154e+02 1.280e+02 -1.718e+03
          -1.913e+02 1.715e+02 -1.717e+03
          -1.663e+02 1.305e+02 -1.723e+03
          -1.183e+02 1.331e+02 -1.728e+03
          -7.034e+01 1.355e+02 -1.730e+03
          -2.208e+01 1.371e+02 -1.730e+03
          2.653e+01 1.354e+02 -1.730e+03
          7.890e+01 1.321e+02 -1.731e+03
          1.317e+02 1.308e+02 -1.727e+03
          1.797e+02 1.527e+02 -1.721e+03
          2.240e+02 1.336e+02 -1.717e+03
          -1.435e+02 1.753e+02 -1.722e+03
          -1.243e+02 2.204e+02 -1.718e+03
          -9.560e+01 1.783e+02 -1.725e+03
          -4.678e+01 1.808e+02 -1.728e+03
          3.002e+00 1.818e+02 -1.727e+03
          5.461e+01 1.735e+02 -1.728e+03
          1.031e+02 1.742e+02 -1.726e+03
          1.265e+02 2.210e+02 -1.718e+03
          1.481e+02 1.795e+02 -1.722e+03
          -7.727e+01 2.233e+02 -1.720e+03
          -3.328e+01 2.261e+02 -1.719e+03
          6.824e+00 2.320e+02 -1.722e+03
          4.196e+01 2.153e+02 -1.724e+03
          8.203e+01 2.185e+02 -1.717e+03
          -8.673e+01 -4.461e+02 -1.676e+03
          -1.069e+02 -4.907e+02 -1.661e+03
          -1.332e+02 -4.562e+02 -1.671e+03
          -3.950e+01 -4.381e+02 -1.680e+03
          -6.022e+01 -4.815e+02 -1.666e+03
          7.861e+00 -4.320e+02 -1.680e+03
          -1.347e+01 -4.757e+02 -1.669e+03
          5.430e+01 -4.324e+02 -1.681e+03
          3.330e+01 -4.733e+02 -1.670e+03
          8.105e+01 -4.727e+02 -1.669e+03
          -1.884e+02 -3.869e+02 -1.682e+03
          -2.061e+02 -4.339e+02 -1.668e+03
          -2.332e+02 -4.006e+02 -1.672e+03
          -1.430e+02 -3.746e+02 -1.690e+03
          -1.602e+02 -4.209e+02 -1.675e+03
          -1.142e+02 -4.101e+02 -1.683e+03
          -6.695e+01 -4.008e+02 -1.688e+03
          -1.878e+01 -3.937e+02 -1.692e+03
          2.977e+01 -3.880e+02 -1.692e+03
          7.572e+01 -3.932e+02 -1.690e+03
          1.027e+02 -4.325e+02 -1.678e+03
          1.289e+02 -3.952e+02 -1.686e+03
          1.518e+02 -4.321e+02 -1.673e+03
          1.798e+02 -3.894e+02 -1.683e+03
          1.952e+02 -4.362e+02 -1.670e+03
          2.249e+02 -4.106e+02 -1.672e+03
          -2.974e+02 -3.367e+02 -1.677e+03
          -3.008e+02 -3.795e+02 -1.667e+03
          -3.395e+02 -3.654e+02 -1.664e+03
          -2.534e+02 -3.221e+02 -1.688e+03
          -2.601e+02 -3.674e+02 -1.676e+03
          -2.174e+02 -3.530e+02 -1.686e+03
          -1.732e+02 -3.389e+02 -1.695e+03
          -9.632e+01 -3.640e+02 -1.695e+03
          -4.815e+01 -3.558e+02 -1.698e+03
          1.730e+00 -3.493e+02 -1.701e+03
          5.288e+01 -3.431e+02 -1.701e+03
          9.850e+01 -3.604e+02 -1.696e+03
          1.453e+02 -3.533e+02 -1.694e+03
          1.902e+02 -3.409e+02 -1.692e+03
          2.368e+02 -3.221e+02 -1.690e+03
          2.269e+02 -3.673e+02 -1.681e+03
          2.747e+02 -3.484e+02 -1.679e+03
          2.681e+02 -3.915e+02 -1.671e+03
          3.124e+02 -3.779e+02 -1.666e+03
          -3.338e+02 -2.720e+02 -1.682e+03
          -3.368e+02 -3.182e+02 -1.674e+03
          -3.769e+02 -2.989e+02 -1.668e+03
          -2.929e+02 -2.922e+02 -1.687e+03
          -2.473e+02 -2.781e+02 -1.696e+03
          -2.078e+02 -3.061e+02 -1.697e+03
          -1.278e+02 -3.272e+02 -1.701e+03
          -8.090e+01 -3.181e+02 -1.705e+03
          -3.211e+01 -3.115e+02 -1.708e+03
          1.689e+01 -3.046e+02 -1.708e+03
          6.383e+01 -2.936e+02 -1.709e+03
          1.029e+02 -3.211e+02 -1.704e+03
          1.512e+02 -3.091e+02 -1.702e+03
          1.984e+02 -2.941e+02 -1.697e+03
          2.464e+02 -2.765e+02 -1.696e+03
          2.841e+02 -3.038e+02 -1.686e+03
          3.302e+02 -2.877e+02 -1.679e+03
          3.213e+02 -3.332e+02 -1.674e+03
          3.670e+02 -3.215e+02 -1.667e+03
          -3.345e+02 -2.274e+02 -1.689e+03
          -3.775e+02 -2.537e+02 -1.676e+03
          -2.884e+02 -2.458e+02 -1.695e+03
          -2.402e+02 -2.372e+02 -1.704e+03
          -1.983e+02 -2.601e+02 -1.704e+03
          -1.613e+02 -2.907e+02 -1.704e+03
          -1.157e+02 -2.798e+02 -1.710e+03
          -6.701e+01 -2.732e+02 -1.714e+03
          -1.901e+01 -2.661e+02 -1.715e+03
          2.822e+01 -2.575e+02 -1.716e+03
          1.126e+02 -2.773e+02 -1.709e+03
          1.610e+02 -2.644e+02 -1.709e+03
          2.091e+02 -2.487e+02 -1.706e+03
          2.568e+02 -2.303e+02 -1.702e+03
          2.938e+02 -2.583e+02 -1.693e+03
          3.389e+02 -2.411e+02 -1.686e+03
          3.749e+02 -2.769e+02 -1.671e+03
          -3.809e+02 -2.092e+02 -1.681e+03
          -4.225e+02 -2.347e+02 -1.668e+03
          -4.248e+02 -1.893e+02 -1.673e+03
          -3.419e+02 -1.823e+02 -1.693e+03
          -2.937e+02 -1.985e+02 -1.699e+03
          -2.459e+02 -1.980e+02 -1.705e+03
          -1.956e+02 -2.131e+02 -1.713e+03
          -1.521e+02 -2.411e+02 -1.712e+03
          1.715e+02 -2.195e+02 -1.714e+03
          2.199e+02 -2.030e+02 -1.711e+03
          2.656e+02 -1.827e+02 -1.706e+03
          3.030e+02 -2.108e+02 -1.697e+03
          3.478e+02 -1.917e+02 -1.691e+03
          3.904e+02 -1.912e+02 -1.682e+03
          3.819e+02 -2.331e+02 -1.678e+03
          4.268e+02 -2.227e+02 -1.669e+03
          -3.867e+02 -1.628e+02 -1.686e+03
          -4.260e+02 -1.411e+02 -1.677e+03
          -3.525e+02 -1.348e+02 -1.696e+03
          -3.070e+02 -1.524e+02 -1.703e+03
          -2.623e+02 -1.568e+02 -1.710e+03
          -2.130e+02 -1.657e+02 -1.714e+03
          2.272e+02 -1.553e+02 -1.714e+03
          2.710e+02 -1.345e+02 -1.711e+03
          3.104e+02 -1.620e+02 -1.701e+03
          3.535e+02 -1.398e+02 -1.696e+03
          3.961e+02 -1.501e+02 -1.686e+03
          4.342e+02 -1.775e+02 -1.674e+03
          -4.331e+02 -8.900e+01 -1.680e+03
          -4.631e+02 -1.217e+02 -1.669e+03
          -4.923e+02 -9.306e+01 -1.662e+03
          -3.923e+02 -1.114e+02 -1.689e+03
          -3.523e+02 -8.377e+01 -1.695e+03
          -3.179e+02 -1.071e+02 -1.704e+03
          -2.764e+02 -1.111e+02 -1.711e+03
          2.722e+02 -8.592e+01 -1.713e+03
          3.136e+02 -1.127e+02 -1.705e+03
          3.542e+02 -8.837e+01 -1.698e+03
          3.949e+02 -1.067e+02 -1.687e+03
          4.371e+02 -1.297e+02 -1.674e+03
          -4.317e+02 -3.840e+01 -1.682e+03
          -4.692e+02 -6.066e+01 -1.671e+03
          -3.933e+02 -6.260e+01 -1.691e+03
[...]
      <PointData Scalars="depth (km)">
        <DataArray type="Float32" Name="depth (km)" NumberOfComponents="1" format="ascii">
          -2.050e+00
          -5.587e-01
          -3.974e-02
          -1.032e-01
          -5.837e-01
          -3.098e-01
          -3.456e-01
          4.002e-01
          -2.433e-01
          4.055e-02
          -3.342e-01
          4.763e-01
          -6.185e-01
          -3.577e-01
          -7.282e-01
          -3.321e+00
          -3.731e-01
          -3.832e-01
          -1.434e+00
          -8.906e-01
          -6.370e-01
          -5.451e-01
          -1.671e+00
          2.656e-01
          7.395e-02
          -3.239e-01
          -8.966e-01
          2.540e-01
          -3.931e-01
          -9.107e-01
          -6.146e-01
          -1.413e-01
          -2.728e-01
          -4.794e-01
          -4.276e-01
          -5.687e-01
          -1.102e+00
          2.952e-02
          -9.862e-01
          -3.758e-01
          -1.097e+00
          -7.072e-01
          -7.104e-01
          -5.075e-01
          -1.352e+00
          1.436e+00
          1.450e-01
          -3.789e-01
          -2.482e-01
          -1.267e+00
          5.201e-02
          -1.268e+00
          -1.990e-01
          -3.607e-01
          -1.092e+00
          -2.172e+00
          1.809e-01
          -2.616e+00
          -8.849e-01
          -7.543e-01
          -6.838e-01
          -8.332e-01
          -9.024e-01
          1.671e-01
          -1.361e+00
          -2.701e+00
          -2.482e+00
          -2.535e+00
          1.418e+00
          -8.036e-01
          -7.144e-01
          -6.662e-01
          -3.023e-01
          6.739e-01
          -2.066e+00
          -7.401e-01
          -2.636e+00
          -2.471e+00
          -1.515e+00
          7.313e-01
          -5.837e-01
          -8.589e-01
          -7.933e-01
          -4.127e-01
          -4.709e-01
          -1.615e+00
          -1.698e+00
          1.905e-01
          -6.021e-01
          -2.410e-01
          -9.616e-02
          -3.791e-01
          -7.325e-01
          -1.516e-01
          8.669e-01
          -4.587e-01
          5.508e-01
          3.940e-01
          -1.986e-01
          1.094e-01
          -9.366e-01
          -3.397e+00
          8.421e-01
          8.036e-01
          -3.927e+00
          -2.997e-01
          -1.673e+00
          5.205e-01
          -4.220e-01
          -2.241e+00
          -2.455e+00
          -1.965e+00
          -3.733e-01
          -7.373e-01
          -4.452e-01
          -1.190e+00
          -1.256e+00
          -1.802e+00
          1.112e-01
          -2.480e+00
          -7.012e-01
          -8.713e-01
          -1.896e-01
          -1.340e+00
          1.001e-01
          -1.699e+00
          -4.947e-01
          -2.182e+00
          -8.251e-01
          -1.269e-01
          -4.371e-01
          -9.599e-01
          -1.339e+00
          -4.601e-01
          -4.080e-01
          -1.329e+00
          -8.254e-01
          -6.201e-02
          -8.767e-01
          -1.157e+00
          -6.486e-01
          -1.020e+00
          -6.865e-01
          -1.070e+00
          -4.831e-01
          -5.919e-01
          -1.158e+00
          -1.019e-01
          -1.994e-01
          -3.389e-01
          -8.922e-01
          4.245e-02
          -9.995e-01
          3.602e-02
          -4.222e-01
          -7.358e-01
          -3.034e-01
          -9.052e-01
          -3.707e-01
          -2.245e+00
          -1.753e+00
          1.838e-01
          -9.596e-01
          -3.360e+00
          -1.025e+00
          -4.505e-01
          -1.905e+00
          -5.898e-01
          -2.573e-01
          -4.260e-01
          -8.701e-01
          -5.223e-01
          -4.335e-02
          -1.566e+00
          -1.029e+00
          -8.250e-01
          -5.874e-01
          -1.391e+00
          -2.100e+00
          -2.106e+00
          -7.975e-01
          -6.512e-01
          -7.244e-01
          3.150e-01
          -3.101e-01
          -2.285e+00
          -5.268e-01
          -3.375e-01
          -1.031e+00
          -2.035e-01
          -1.507e+00
          -2.759e+00
          4.475e-01
          -1.310e+00
          -7.896e-01
          -5.737e-01
          -1.205e+00
          -2.653e-01
          1.599e-01
          2.196e-01
          -7.990e-01
          -1.675e-01
          3.031e-01
          -9.922e-01
          -1.029e-01
          -3.019e-01
          3.077e-01
          -1.988e+00
          -9.252e-01
          4.351e-01
          -7.435e-01
          5.592e-01
          1.364e+00
          1.327e+00
          -1.649e-01
          -1.022e+00
          -8.438e-01
          5.339e-01
          -3.629e+00
          3.643e-03
          -3.570e-01
          -1.770e-01
          1.275e-01
          -7.740e-01
          -8.221e-01
          -2.345e+00
          -5.096e-01
          -8.295e-01
          1.390e-01
          6.901e-02
          -9.224e-01
          -5.940e-01
          -2.567e+00
          -1.962e+00
          -1.424e+00
          -4.064e+00
          -1.545e+00
          -1.184e+00
          -1.341e+00
          -5.245e-01
          -3.715e-01
          -3.187e-01
          -2.269e-01
          -4.760e-02
          -1.880e-01
          -2.606e+00
          1.001e+00
          -2.052e+00
          -8.953e-01
          2.393e+00
          8.626e-01
          1.216e-01
          -9.283e-01
          -1.958e-01
          -3.159e-01
          -3.507e-01
          -2.968e-01
          1.060e+00
          5.794e-01
          -1.079e-01
          1.449e+00
          -6.887e-02
          8.104e-01
          -4.539e-01
          -1.212e+00
          -3.174e-01
          -3.509e-01
          5.918e-02
          -3.052e-01
          1.953e-01
          6.299e-02
          -5.691e-01
          1.174e-02
          6.525e-01
          2.765e-01
          1.463e-01
          -4.056e-01
          -3.703e-01
          -3.236e-01
          -7.881e-01
          -7.004e-01
          -1.349e-01
          1.246e-01
          3.694e-01
          -7.601e-02
          -4.416e-01
          -6.307e-01
          -5.892e-01
          6.224e-01
          -2.530e-01
          -7.878e-01
          9.347e-01
          -3.808e-01
          1.657e-01
          -2.238e-03
          -7.307e-01
          8.455e-02
          -4.192e-01
          1.601e-01
          -8.776e-01
          -3.554e-01
          -1.197e+00
          -1.277e-01
          -9.801e-01
          -8.918e-02
          -6.835e-01
          -9.183e-01
          -4.842e-01
          -4.402e-01
          -2.859e-01
          6.303e-01
          -1.925e-01
          -5.938e-01
          5.680e-01
          -6.055e-01
          -3.156e-02
          -4.187e-01
          -4.503e-01
          -5.774e-02
          2.097e-01
          9.433e-02
          -6.922e-01
          -7.361e-01
          -5.602e-01
          -4.655e-01
          -7.417e-01
          2.051e-01
          1.340e-02
          -4.667e-01
          -2.383e-01
          -9.109e-01
          -6.401e-01
          -5.582e-01
          -7.253e-01
          -3.119e-01
          -3.319e-01
          -1.738e-01
          -4.595e-02
          -3.695e-01
          -7.732e-01
          1.899e-01
          -3.324e-01
          -7.209e-01
          2.901e-01
          1.374e-01
          -2.256e+00
          3.718e-01
          -5.656e-01
          -7.660e-01
          -5.715e-01
          -8.587e-01
          -8.727e-01
          -5.643e-01
          -2.168e-01
          -3.021e+00
          -3.215e-01
          -2.569e-01
          -7.766e-01
          -5.237e-01
          9.390e-01
          1.255e+00
          8.924e-01
          1.396e+00
          -2.351e+00
          2.159e-01
          4.509e-02
          -2.033e-01
          2.298e-01
          -5.113e-01
          -5.939e-01
          2.922e-01
          5.204e-01
          -2.802e+00
          -2.835e+00
          1.945e+00
          -2.759e+00
          -2.490e+00
          7.785e-01
          6.854e-01
          -1.907e-01
          -3.856e-01
          6.388e-02
          1.293e+00
          -6.152e-01
          -2.192e+00
          -1.328e+00
          1.502e-01
          2.498e-02
          1.403e+00
          -3.124e-03
          -2.684e+00
          -2.550e+00
          -1.671e+00
          -1.793e+00
          -6.924e-01
          -2.382e-01
          -8.844e-01
          -3.552e-01
          -2.705e-01
          -1.197e-02
          -1.856e+00
          -2.420e-02
          -3.489e-01
          -2.050e+00
          -4.189e-01
          8.727e-02
          5.215e-01
          -4.853e-01
          -1.070e+00
          4.146e-01
          -5.302e-01
          -8.547e-02
          -2.574e-02
          -1.098e-01
          -1.865e+00
          -1.314e+00
          -5.356e-01
          -6.954e-01
          -3.671e-01
          -3.354e-01
          -7.905e-01
          -5.635e-01
          -3.205e+00
          -6.230e-01
          -1.204e+00
          -2.383e+00
          -1.274e+00
          -8.302e-02
          -9.937e-01
          -3.895e-01
          -8.770e-01
          -3.098e+00
          -2.690e+00
          -3.173e+00
          -3.064e+00
          -3.915e+00
          -7.727e-01
          -7.292e-01
          -4.761e-01
          -8.539e-01
          -4.485e-01
          1.808e-01
          4.316e-01
          -3.055e-01
          -1.730e+00
          -8.079e-01
          -2.433e+00
          -3.293e+00
          -3.107e+00
          -2.979e+00
          -3.063e+00
          -6.636e-01
          -1.665e+00
          -7.164e-02
          -3.517e-01
          -9.810e-01
          -9.011e-01
          -4.761e-01
          -5.098e-01
          -2.835e-01
          -1.281e+00
          -2.397e+00
          -2.474e+00
          -5.119e-01
          -3.397e-01
          2.059e-01
          -1.134e+00
          -3.059e-01
          -4.096e-01
          -4.545e-01
          -8.477e-01
          -5.248e-01
          -3.199e-01
          -3.820e-02
          -5.347e-02
          -2.226e-01
          -8.344e-01
          -6.313e-01
          -7.195e-01
          -9.605e-02
          -8.513e-01
          -8.182e-01
          -7.699e-01
          -6.448e-01
          -3.745e-01
          3.342e-01
          -5.239e-01
          -7.164e-01
          -4.082e-01
          -5.812e-01
          -6.290e-01
          -9.204e-01
          -5.977e-01
          -1.629e-01
          -2.983e+00
          5.553e-02
          2.067e-01
          -6.026e-01
          8.683e-02
          -2.350e+00
          -1.083e+00
          -4.866e-01
          -9.828e-01
          -1.079e+00
          6.434e-01
          -6.060e-01
          -6.885e-01
          -7.920e-01
          -2.486e-01
          -3.482e-01
          -9.543e-01
          -1.155e+00
          -1.528e+00
          -3.021e+00
          4.210e-01
          -6.041e-01
          -5.287e-02
          -8.075e-01
          3.987e-03
          -3.230e-01
          -7.299e-01
          -3.259e+00
          -3.264e+00
          2.108e-01
          5.329e-01
          3.505e-03
          1.786e-02
          1.078e-01
          5.625e-01
          -8.699e-01
          1.051e+00
          1.115e+00
          6.384e-01
          1.139e-01
          2.702e-01
          -6.402e-01
          -1.192e+00
          1.395e+00
          -1.196e+00
          1.069e+00
          5.466e-01
          1.107e+00
          -8.332e-01
          -5.821e-01
          -2.948e-01
          -1.021e-02
          -9.237e-01
          1.107e+00
          -8.007e-01
          -1.648e+00
          1.826e-03
          -8.997e-01
          -5.901e-01
          -5.230e-01
          7.640e-01
          -5.406e-01
          -1.430e+00
          1.133e+00
          1.405e+00
          -1.140e+00
          -7.808e-01
          -5.433e-01
          6.406e-02
          -1.305e+00
          4.717e-01
          -6.710e-01
          -1.783e-01
          -2.173e-01
          9.912e-01
          -5.072e-01
          -1.469e+00
          -1.357e+00
          -9.216e-01
          3.793e-01
          -2.442e-01
          -3.447e-01
          7.300e-01
          -1.887e+00
          -2.268e+00
          -1.331e-01
          -8.121e-01
          -2.517e-01
          -3.436e-01
          3.454e-01
          3.819e-01
          7.569e-01
          -2.708e+00
          -2.210e+00
          -1.223e+00
          -4.240e-01
          -2.356e+00
          1.053e+00
          1.799e-01
          1.908e-01
          5.360e-01
          -3.607e-01
          1.309e+00
          -6.712e-01
          -8.876e-01
          -7.341e-01
          -5.915e-01
          -8.571e-01
          6.220e-01
          2.001e-01
          -5.397e-01
          -1.977e+00
          1.101e+00
          -8.885e-01
          -1.077e+00
          -4.486e-01
          -1.049e+00
          -5.674e-01
          -5.965e-01
          6.863e-01
          -9.285e-01
          -1.235e+00
          -1.221e+00
          3.815e-01
          1.770e+00
          4.732e-01
          -7.071e-01
          -3.566e-01
          -2.916e-01
          -4.362e-01
          -6.405e-01
          -4.690e-01
          -5.925e-01
          -1.780e+00
          1.120e-01
          -3.990e-01
          -3.040e+00
          1.352e+00
          5.009e-01
          7.763e-01
          9.580e-01
          -4.793e-01
          -9.617e-01
          1.986e-01
          -1.216e+00
          4.803e-02
          -7.722e-01
          -3.969e-02
          1.527e+00
          7.323e-01
          1.053e+00
          -1.228e-01
          1.610e-01
          -5.506e-01
          1.262e-01
          2.835e-01
          1.217e+00
          1.689e-01
          -4.006e-03
          -2.194e+00
          -1.598e+00
          -1.614e+00
          -9.749e-02
          -5.689e-01
          -1.522e+00
          5.454e-01
          6.333e-01
          1.688e-01
          1.741e-01
          1.664e-01
          -5.837e-01
          -3.542e-01
          7.646e-02
          5.218e-02
          5.551e-01
          2.054e-01
          -4.263e-02
          -2.431e-01
          -5.654e-01
          -1.854e+00
          -2.719e-01
          -1.768e-01
          -6.798e-01
          5.194e-01
          -1.320e+00
          -3.240e+00
          -4.627e-01
          -6.761e-01
          -1.207e-01
          -3.559e-01
          -6.748e-01
          -1.494e+00
          4.006e-01
          3.061e-01
          -1.637e-01
          -2.359e+00
          -2.680e+00
          -2.353e+00
          -1.002e+00
          -4.273e+00
          -8.067e-01
          -3.724e+00
          -7.902e-01
          -2.894e+00
          -2.184e-01
          -2.653e+00
          -1.753e+00
          -4.957e-01
          -1.120e+00
          -1.581e+00
          -4.038e+00
          -1.001e+00
          2.636e-01
          -8.257e-01
          -8.277e-01
          -1.513e+00
          -8.335e-01
          -1.603e+00
          -1.094e+00
          2.199e-02
          -1.078e+00
          -4.746e-01
          -8.288e-01
          -1.250e+00
          -1.996e+00
          -1.887e+00
          -8.680e-01
          -2.227e+00
          -2.624e+00
          4.784e-01
          -1.301e+00
          -7.096e-02
          -3.904e-01
          -5.708e-01
          -1.321e+00
          -7.210e-01
          -2.303e-01
          -5.218e-01
          -2.805e+00
          -1.248e+00
          -7.937e-01
          -2.165e+00
          -2.818e+00
          -1.822e+00
          1.331e+00
          1.319e+00
          -2.577e+00
          7.620e-01
          -1.105e+00
          -2.654e+00
          -1.546e+00
          -2.452e-01
          -3.449e-01
          -1.605e+00
          -7.134e-01
          -9.383e-01
          -2.646e+00
          -2.972e+00
          -9.074e-01
          8.114e-01
          -6.681e-01
          -1.440e+00
          -5.539e-01
          -1.410e+00
          -8.543e-01
          -1.504e+00
          -1.438e+00
          -2.902e-01
          -2.727e+00
          2.841e-01
          -4.339e-01
          -3.647e-01
          -1.221e+00
          -1.514e-01
          -1.029e+00
          -1.307e+00
          -1.168e+00
          -1.466e+00
          -1.220e+00
          -3.049e-01
          -1.239e+00
          5.043e-01
          -6.359e-01
          -4.548e-01
          -1.561e+00
          -1.336e+00
          -1.093e+00
          -1.297e+00
          -1.923e+00
          3.544e-01
          -1.294e+00
          -2.638e+00
          -2.817e+00
          3.428e-02
          -7.178e-01
          -8.670e-01
          -1.601e+00
          2.890e-01
          1.855e-01
          -2.067e-01
          -1.303e+00
          -1.122e+00
          -1.260e+00
          -1.041e+00
          -6.573e-01
          3.933e-02
          -1.205e-01
          1.078e-01
          1.703e+00
          1.410e+00
          -1.286e+00
          -1.532e+00
          -1.100e+00
          -1.325e-01
          7.472e-01
          4.228e-01
          -1.089e+00
          -1.011e+00
          -8.064e-01
          4.909e-02
          1.130e+00
          1.001e+00
          -1.137e+00
          -7.200e-01
          -1.179e+00
          -1.088e+00
          -9.309e-01
          -5.315e-01
          3.830e-01
          7.918e-01
          5.204e-01
          1.031e+00
          -1.230e+00
          -1.018e+00
          -1.032e+00
          -1.971e-01
          3.818e-01
          2.415e-01
          -1.144e+00
          -1.264e+00
          -1.462e+00
          -1.725e-01
          -2.279e-01
          1.252e+00
          -1.650e+00
          -1.629e+00
          -1.329e+00
          4.541e-01
          2.633e-01
          9.042e-01
          -1.292e+00
          -5.639e-01
          -2.092e+00
          1.252e+00
          7.084e-01
          5.489e-01
          -1.064e+00
          -9.669e-01
          -8.946e-01
          1.763e+00
          1.613e+00
          2.052e+00
          -1.412e+00
          -1.820e+00
          -1.597e+00
          -1.334e+00
          1.694e+00
          -8.223e-01
          1.588e+00
          1.219e+00
          -1.813e+00
          -1.590e+00
          -1.804e+00
          -1.686e+00
          1.968e+00
          1.103e+00
          -1.715e+00
          6.226e-01
          -1.931e+00
          -1.338e+00
          -2.344e+00
          2.221e+00
          -1.528e+00
          -1.664e+00
          -2.427e+00
          -2.092e+00
          -1.912e+00
          -1.778e+00
          1.480e+00
          1.511e+00
          1.680e+00
          2.814e+00
          -1.754e+00
          -1.826e+00
          -1.344e+00
          -1.115e+00
          -1.103e+00
          1.212e+00
          2.267e+00
          2.527e+00
          2.996e+00
          -1.421e+00
          -2.009e+00
          -1.397e+00
          -1.115e+00
          2.212e+00
          1.675e-01
          2.082e+00
          2.713e+00
          -1.521e+00
          -1.384e+00
          -1.175e+00
          -1.027e+00
          -7.975e-01
          2.396e-01
          1.312e+00
          1.943e+00
          -1.802e+00
          -1.917e+00
          -2.002e+00
          -6.755e-01
          -5.204e-01
          -4.381e-01
          -1.799e+00
          -1.408e+00
          -1.074e-01
          1.269e+00
          1.683e+00
          2.301e+00
          2.575e+00
          -1.370e+00
          -8.635e-01
          -1.763e+00
          -1.521e-01
          -1.561e+00
          -9.036e-01
          8.226e-02
          3.643e-01
          -5.485e-01
          1.532e+00
          1.819e+00
          1.526e+00
          -1.319e+00
          -8.518e-02
          8.951e-01
          -3.972e-01
          5.296e-01
          -3.122e-01
          -6.843e-01
          -8.781e-01
          2.139e-01
          -6.692e-01
          2.620e-02
          -4.030e-01
          2.303e-01
          -7.929e-01
          2.864e-01
          9.518e-01
          1.080e+00
          -3.772e-01
          -3.566e+00
          9.049e-02
          -5.870e-01
          -5.910e-01