<?xml version="1.0"?>
<VTKFile type="UnstructuredGrid" version="0.1" byte_order="LittleEndian" compressor="vtkZLibDataCompressor">
  <UnstructuredGrid>
    <Piece NumberOfPoints="20822" NumberOfCells="41640">
      <Points>
        <DataArray type="Float32" NumberOfComponents="3" format="ascii">
          -3.984e-02 -6.131e-02 -4.879e-01
          -4.729e-02 -7.358e-02 -4.855e-01
          -3.362e-02 -7.432e-02 -4.865e-01
          -2.613e-02 -6.172e-02 -4.887e-01
          -1.939e-02 -7.406e-02 -4.873e-01
          -1.221e-02 -6.164e-02 -4.893e-01
          -5.634e-03 -7.423e-02 -4.877e-01
          1.527e-03 -6.145e-02 -4.894e-01
          7.720e-03 -7.443e-02 -4.876e-01
          1.483e-02 -6.189e-02 -4.892e-01
          2.056e-02 -7.510e-02 -4.871e-01
          2.810e-02 -6.362e-02 -4.884e-01
          3.298e-02 -7.658e-02 -4.862e-01
          4.173e-02 -6.876e-02 -4.867e-01
          -4.605e-02 -4.818e-02 -4.888e-01
          -5.964e-02 -4.703e-02 -4.874e-01
          -5.349e-02 -6.026e-02 -4.867e-01
          -3.234e-02 -4.885e-02 -4.898e-01
          -1.851e-02 -4.911e-02 -4.905e-01
          -4.631e-03 -4.902e-02 -4.908e-01
          9.757e-03 -4.872e-02 -4.908e-01
          2.325e-02 -5.011e-02 -4.902e-01
          3.715e-02 -5.472e-02 -4.888e-01
          5.047e-02 -6.031e-02 -4.870e-01
          4.643e-02 -4.583e-02 -4.890e-01
          5.834e-02 -5.119e-02 -4.872e-01
          -6.555e-02 -3.406e-02 -4.878e-01
          -8.008e-02 -3.233e-02 -4.857e-01
          -7.352e-02 -4.510e-02 -4.857e-01
          -5.216e-02 -3.489e-02 -4.893e-01
          -3.866e-02 -3.590e-02 -4.905e-01
          -2.468e-02 -3.638e-02 -4.913e-01
          -1.114e-02 -3.623e-02 -4.918e-01
          3.244e-03 -3.710e-02 -4.919e-01
          1.873e-02 -3.594e-02 -4.916e-01
          3.292e-02 -4.076e-02 -4.905e-01
          4.498e-02 -3.279e-02 -4.901e-01
          6.995e-02 -4.782e-02 -4.860e-01
          5.887e-02 -3.827e-02 -4.883e-01
          7.207e-02 -3.338e-02 -4.869e-01
          -5.756e-02 -2.131e-02 -4.895e-01
          -7.111e-02 -2.225e-02 -4.877e-01
          -4.486e-02 -2.247e-02 -4.907e-01
          -3.090e-02 -2.404e-02 -4.917e-01
          -1.797e-02 -2.271e-02 -4.924e-01
          -4.059e-03 -2.423e-02 -4.926e-01
          9.050e-03 -2.540e-02 -4.925e-01
          1.984e-02 -2.002e-02 -4.925e-01
          3.141e-02 -2.726e-02 -4.915e-01
          4.377e-02 -1.946e-02 -4.909e-01
          5.732e-02 -2.582e-02 -4.893e-01
          8.617e-02 -3.434e-02 -4.846e-01
          6.920e-02 -1.966e-02 -4.880e-01
          8.289e-02 -2.268e-02 -4.858e-01
          -6.348e-02 -9.257e-03 -4.891e-01
          -7.650e-02 -1.141e-02 -4.872e-01
          -4.964e-02 -7.598e-03 -4.907e-01
          -3.617e-02 -1.217e-02 -4.918e-01
          -2.282e-02 -8.063e-03 -4.927e-01
          -9.010e-03 -1.157e-02 -4.930e-01
          5.030e-03 -1.203e-02 -4.931e-01
          1.769e-02 -5.861e-03 -4.929e-01
          3.117e-02 -1.251e-02 -4.921e-01
          4.338e-02 -5.473e-03 -4.913e-01
          5.607e-02 -1.256e-02 -4.899e-01
          6.799e-02 -5.805e-03 -4.886e-01
          8.054e-02 -1.092e-02 -4.866e-01
          -6.177e-02 3.806e-03 -4.894e-01
          -7.507e-02 5.670e-04 -4.876e-01
          -4.888e-02 7.410e-03 -4.908e-01
          -3.618e-02 4.015e-04 -4.919e-01
          -2.292e-02 6.509e-03 -4.927e-01
          -1.003e-02 1.178e-03 -4.931e-01
          4.346e-03 2.211e-03 -4.932e-01
          1.777e-02 8.066e-03 -4.929e-01
          3.052e-02 1.568e-03 -4.923e-01
          4.326e-02 8.464e-03 -4.913e-01
          5.577e-02 1.242e-03 -4.901e-01
          6.856e-02 7.706e-03 -4.885e-01
          8.079e-02 9.342e-04 -4.867e-01
          -6.113e-02 1.721e-02 -4.892e-01
          -7.413e-02 1.317e-02 -4.875e-01
          -4.843e-02 2.181e-02 -4.904e-01
          -3.593e-02 1.405e-02 -4.918e-01
          -2.292e-02 2.027e-02 -4.923e-01
          -8.954e-03 1.457e-02 -4.930e-01
          5.398e-03 1.657e-02 -4.929e-01
          1.897e-02 2.144e-02 -4.924e-01
          3.104e-02 1.596e-02 -4.920e-01
          4.338e-02 2.256e-02 -4.908e-01
          5.609e-02 1.478e-02 -4.899e-01
          6.967e-02 2.085e-02 -4.879e-01
          8.196e-02 1.349e-02 -4.863e-01
          -6.085e-02 3.080e-02 -4.886e-01
          -7.362e-02 2.626e-02 -4.871e-01
          -4.817e-02 3.579e-02 -4.896e-01
          -3.559e-02 2.792e-02 -4.912e-01
          -2.282e-02 3.459e-02 -4.915e-01
          -1.107e-02 2.806e-02 -4.923e-01
          1.943e-03 3.019e-02 -4.923e-01
          1.557e-02 3.303e-02 -4.919e-01
          3.064e-02 3.131e-02 -4.913e-01
          4.498e-02 3.577e-02 -4.899e-01
          5.720e-02 2.773e-02 -4.892e-01
          8.291e-02 2.693e-02 -4.856e-01
          7.094e-02 3.409e-02 -4.870e-01
          -7.318e-02 3.966e-02 -4.863e-01
          -4.771e-02 4.962e-02 -4.885e-01
          -6.046e-02 4.441e-02 -4.876e-01
          -3.554e-02 4.175e-02 -4.902e-01
          -2.260e-02 4.764e-02 -4.905e-01
          -8.111e-03 4.181e-02 -4.914e-01
          6.703e-03 4.364e-02 -4.913e-01
          2.194e-02 4.429e-02 -4.908e-01
          3.528e-02 4.576e-02 -4.899e-01
          4.845e-02 4.939e-02 -4.884e-01
          5.892e-02 4.038e-02 -4.881e-01
          7.203e-02 4.775e-02 -4.857e-01
          -5.988e-02 5.790e-02 -4.862e-01
          -3.477e-02 5.545e-02 -4.889e-01
          -4.695e-02 6.309e-02 -4.870e-01
          -2.244e-02 6.228e-02 -4.888e-01
          -1.194e-02 5.492e-02 -4.901e-01
          1.614e-04 5.552e-02 -4.902e-01
          1.406e-02 5.606e-02 -4.899e-01
          2.765e-02 5.772e-02 -4.891e-01
          4.095e-02 6.009e-02 -4.879e-01
          6.124e-02 5.316e-02 -4.866e-01
          5.453e-02 6.312e-02 -4.862e-01
          -3.425e-02 6.925e-02 -4.872e-01
          -2.141e-02 7.558e-02 -4.870e-01
          -3.293e-02 8.285e-02 -4.852e-01
          -8.575e-03 6.828e-02 -4.885e-01
          6.072e-03 6.787e-02 -4.886e-01
          1.970e-02 6.942e-02 -4.880e-01
          3.329e-02 7.125e-02 -4.870e-01
          2.555e-02 8.266e-02 -4.857e-01
          4.700e-02 7.370e-02 -4.855e-01
          -2.195e-02 9.049e-02 -4.845e-01
          -1.088e-02 8.279e-02 -4.862e-01
          2.456e-04 7.964e-02 -4.869e-01
          1.243e-02 8.146e-02 -4.864e-01
          -1.911e-02 -1.351e-01 -4.742e-01
          -3.191e-02 -1.386e-01 -4.726e-01
          -2.358e-02 -1.474e-01 -4.704e-01
          -6.499e-03 -1.346e-01 -4.747e-01
          -1.162e-02 -1.471e-01 -4.709e-01
          6.633e-03 -1.346e-01 -4.747e-01
          1.174e-03 -1.466e-01 -4.712e-01
          2.006e-02 -1.342e-01 -4.744e-01
          1.430e-02 -1.463e-01 -4.711e-01
          2.756e-02 -1.457e-01 -4.707e-01
          -5.217e-02 -1.231e-01 -4.750e-01
          -6.223e-02 -1.328e-01 -4.712e-01
          -5.072e-02 -1.357e-01 -4.717e-01
          -3.874e-02 -1.173e-01 -4.777e-01
          -4.029e-02 -1.300e-01 -4.743e-01
          -2.792e-02 -1.249e-01 -4.765e-01
          -1.528e-02 -1.225e-01 -4.777e-01
          -1.774e-03 -1.226e-01 -4.779e-01
          1.194e-02 -1.226e-01 -4.778e-01
          3.374e-02 -1.338e-01 -4.738e-01
          2.590e-02 -1.224e-01 -4.773e-01
          3.982e-02 -1.216e-01 -4.766e-01
          4.713e-02 -1.338e-01 -4.727e-01
          5.291e-02 -1.224e-01 -4.751e-01
          6.114e-02 -1.331e-01 -4.713e-01
          6.742e-02 -1.220e-01 -4.734e-01
          -7.508e-02 -1.063e-01 -4.760e-01
          -9.011e-02 -1.175e-01 -4.708e-01
          -7.807e-02 -1.184e-01 -4.727e-01
          -6.234e-02 -1.067e-01 -4.777e-01
          -6.511e-02 -1.193e-01 -4.744e-01
          -5.127e-02 -1.112e-01 -4.780e-01
          -3.973e-02 -1.048e-01 -4.805e-01
          -2.560e-02 -1.111e-01 -4.800e-01
          -1.077e-02 -1.108e-01 -4.807e-01
          3.533e-03 -1.108e-01 -4.808e-01
          1.770e-02 -1.110e-01 -4.804e-01
          3.209e-02 -1.104e-01 -4.798e-01
          4.645e-02 -1.091e-01 -4.790e-01
          5.900e-02 -1.121e-01 -4.769e-01
          8.105e-02 -1.196e-01 -4.719e-01
          7.193e-02 -1.095e-01 -4.757e-01
          8.445e-02 -1.067e-01 -4.743e-01
          -9.232e-02 -9.172e-02 -4.760e-01
          -1.028e-01 -1.012e-01 -4.719e-01
          -8.891e-02 -1.048e-01 -4.740e-01
          -7.909e-02 -9.381e-02 -4.779e-01
          -6.539e-02 -9.475e-02 -4.798e-01
          -5.113e-02 -9.725e-02 -4.810e-01
          -3.122e-02 -9.746e-02 -4.826e-01
          -1.821e-02 -9.897e-02 -4.830e-01
          -4.300e-03 -9.885e-02 -4.833e-01
          9.636e-03 -9.902e-02 -4.832e-01
          2.353e-02 -9.932e-02 -4.827e-01
          3.771e-02 -9.818e-02 -4.820e-01
          4.992e-02 -9.515e-02 -4.815e-01
          6.076e-02 -1.005e-01 -4.792e-01
          7.326e-02 -9.673e-02 -4.783e-01
          9.734e-02 -1.043e-01 -4.724e-01
          8.691e-02 -9.414e-02 -4.765e-01
          1.000e-01 -9.168e-02 -4.744e-01
          -1.084e-01 -7.531e-02 -4.755e-01
          -1.182e-01 -8.431e-02 -4.717e-01
          -1.052e-01 -8.829e-02 -4.740e-01
          -9.596e-02 -7.828e-02 -4.776e-01
          -8.316e-02 -8.079e-02 -4.796e-01
          -6.980e-02 -8.246e-02 -4.814e-01
          -5.557e-02 -8.453e-02 -4.829e-01
          -4.105e-02 -8.704e-02 -4.839e-01
          -2.609e-02 -8.601e-02 -4.851e-01
          -1.208e-02 -8.665e-02 -4.855e-01
          1.960e-03 -8.677e-02 -4.856e-01
          1.595e-02 -8.715e-02 -4.853e-01
          3.006e-02 -8.787e-02 -4.845e-01
          4.468e-02 -8.361e-02 -4.842e-01
          6.142e-02 -8.692e-02 -4.818e-01
          7.635e-02 -8.479e-02 -4.800e-01
          9.000e-02 -8.116e-02 -4.783e-01
          1.134e-01 -8.804e-02 -4.722e-01
          1.030e-01 -7.925e-02 -4.760e-01
          1.167e-01 -7.461e-02 -4.736e-01
          -1.149e-01 -6.243e-02 -4.758e-01
          -1.208e-01 -7.204e-02 -4.730e-01
          -1.015e-01 -6.475e-02 -4.785e-01
          -8.832e-02 -6.737e-02 -4.807e-01
          -7.507e-02 -6.946e-02 -4.827e-01
          -6.130e-02 -7.157e-02 -4.843e-01
          5.468e-02 -7.392e-02 -4.847e-01
[...]
      <PointData Scalars="cmb">
        <DataArray type="Float32" Name="cmb" NumberOfComponents="1" format="ascii">
          -4.879e-01
          -4.855e-01
          -4.865e-01
          -4.887e-01
          -4.873e-01
          -4.893e-01
          -4.877e-01
          -4.894e-01
          -4.876e-01
          -4.892e-01
          -4.871e-01
          -4.884e-01
          -4.862e-01
          -4.867e-01
          -4.888e-01
          -4.874e-01
          -4.867e-01
          -4.898e-01
          -4.905e-01
          -4.908e-01
          -4.908e-01
          -4.902e-01
          -4.888e-01
          -4.870e-01
          -4.890e-01
          -4.872e-01
          -4.878e-01
          -4.857e-01
          -4.857e-01
          -4.893e-01
          -4.905e-01
          -4.913e-01
          -4.918e-01
          -4.919e-01
          -4.916e-01
          -4.905e-01
          -4.901e-01
          -4.860e-01
          -4.883e-01
          -4.869e-01
          -4.895e-01
          -4.877e-01
          -4.907e-01
          -4.917e-01
          -4.924e-01
          -4.926e-01
          -4.925e-01
          -4.925e-01
          -4.915e-01
          -4.909e-01
          -4.893e-01
          -4.846e-01
          -4.880e-01
          -4.858e-01
          -4.891e-01
          -4.872e-01
          -4.907e-01
          -4.918e-01
          -4.927e-01
          -4.930e-01
          -4.931e-01
          -4.929e-01
          -4.921e-01
          -4.913e-01
          -4.899e-01
          -4.886e-01
          -4.866e-01
          -4.894e-01
          -4.876e-01
          -4.908e-01
          -4.919e-01
          -4.927e-01
          -4.931e-01
          -4.932e-01
          -4.929e-01
          -4.923e-01
          -4.913e-01
          -4.901e-01
          -4.885e-01
          -4.867e-01
          -4.892e-01
          -4.875e-01
          -4.904e-01
          -4.918e-01
          -4.923e-01
          -4.930e-01
          -4.929e-01
          -4.924e-01
          -4.920e-01
          -4.908e-01
          -4.899e-01
          -4.879e-01
          -4.863e-01
          -4.886e-01
          -4.871e-01
          -4.896e-01
          -4.912e-01
          -4.915e-01
          -4.923e-01
          -4.923e-01
          -4.919e-01
          -4.913e-01
          -4.899e-01
          -4.892e-01
          -4.856e-01
          -4.870e-01
          -4.863e-01
          -4.885e-01
          -4.876e-01
          -4.902e-01
          -4.905e-01
          -4.914e-01
          -4.913e-01
          -4.908e-01
          -4.899e-01
          -4.884e-01
          -4.881e-01
          -4.857e-01
          -4.862e-01
          -4.889e-01
          -4.870e-01
          -4.888e-01
          -4.901e-01
          -4.902e-01
          -4.899e-01
          -4.891e-01
          -4.879e-01
          -4.866e-01
          -4.862e-01
          -4.872e-01
          -4.870e-01
          -4.852e-01
          -4.885e-01
          -4.886e-01
          -4.880e-01
          -4.870e-01
          -4.857e-01
          -4.855e-01
          -4.845e-01
          -4.862e-01
          -4.869e-01
          -4.864e-01
          -4.742e-01
          -4.726e-01
          -4.704e-01
          -4.747e-01
          -4.709e-01
          -4.747e-01
          -4.712e-01
          -4.744e-01
          -4.711e-01
          -4.707e-01
          -4.750e-01
          -4.712e-01
          -4.717e-01
          -4.777e-01
          -4.743e-01
          -4.765e-01
          -4.777e-01
          -4.779e-01
          -4.778e-01
          -4.738e-01
          -4.773e-01
          -4.766e-01
          -4.727e-01
          -4.751e-01
          -4.713e-01
          -4.734e-01
          -4.760e-01
          -4.708e-01
          -4.727e-01
          -4.777e-01
          -4.744e-01
          -4.780e-01
          -4.805e-01
          -4.800e-01
          -4.807e-01
          -4.808e-01
          -4.804e-01
          -4.798e-01
          -4.790e-01
          -4.769e-01
          -4.719e-01
          -4.757e-01
          -4.743e-01
          -4.760e-01
          -4.719e-01
          -4.740e-01
          -4.779e-01
          -4.798e-01
          -4.810e-01
          -4.826e-01
          -4.830e-01
          -4.833e-01
          -4.832e-01
          -4.827e-01
          -4.820e-01
          -4.815e-01
          -4.792e-01
          -4.783e-01
          -4.724e-01
          -4.765e-01
          -4.744e-01
          -4.755e-01
          -4.717e-01
          -4.740e-01
          -4.776e-01
          -4.796e-01
          -4.814e-01
          -4.829e-01
          -4.839e-01
          -4.851e-01
          -4.855e-01
          -4.856e-01
          -4.853e-01
          -4.845e-01
          -4.842e-01
          -4.818e-01
          -4.800e-01
          -4.783e-01
          -4.722e-01
          -4.760e-01
          -4.736e-01
          -4.758e-01
          -4.730e-01
          -4.785e-01
          -4.807e-01
          -4.827e-01
          -4.843e-01
          -4.847e-01
          -4.829e-01
          -4.815e-01
          -4.799e-01
          -4.773e-01
          -4.702e-01
          -4.761e-01
          -4.726e-01
          -4.753e-01
          -4.719e-01
          -4.719e-01
          -4.787e-01
          -4.813e-01
          -4.834e-01
          -4.852e-01
          -4.850e-01
          -4.836e-01
          -4.820e-01
          -4.796e-01
          -4.786e-01
          -4.748e-01
          -4.780e-01
          -4.746e-01
          -4.804e-01
          -4.812e-01
          -4.837e-01
          -4.844e-01
          -4.819e-01
          -4.803e-01
          -4.768e-01
          -4.728e-01
          -4.747e-01
          -4.704e-01
          -4.744e-01
          -4.703e-01
          -4.733e-01
          -4.772e-01
          -4.803e-01
          -4.833e-01
          -4.854e-01
          -4.832e-01
          -4.814e-01
          -4.783e-01
          -4.758e-01
          -4.722e-01
          -4.747e-01
          -4.711e-01
          -4.777e-01
          -4.807e-01
          -4.831e-01
          -4.853e-01
          -4.842e-01
          -4.820e-01
          -4.790e-01
          -4.760e-01
          -4.725e-01
          -4.748e-01
          -4.714e-01
          -4.779e-01
          -4.807e-01
          -4.832e-01
          -4.855e-01
          -4.844e-01
          -4.818e-01
          -4.792e-01
          -4.760e-01
          -4.727e-01
          -4.744e-01
          -4.713e-01
          -4.777e-01
          -4.803e-01
          -4.831e-01
          -4.853e-01
          -4.839e-01
          -4.812e-01
          -4.788e-01
          -4.754e-01
          -4.724e-01
          -4.707e-01
          -4.772e-01
          -4.737e-01
          -4.797e-01
          -4.826e-01
          -4.846e-01
          -4.845e-01
          -4.830e-01
          -4.803e-01
          -4.780e-01
          -4.746e-01
          -4.718e-01
          -4.763e-01
          -4.727e-01
          -4.786e-01
          -4.818e-01
          -4.836e-01
          -4.851e-01
          -4.833e-01
          -4.817e-01
          -4.792e-01
          -4.769e-01
          -4.709e-01
          -4.735e-01
          -4.752e-01
          -4.716e-01
          -4.773e-01
          -4.805e-01
          -4.822e-01
          -4.835e-01
          -4.846e-01
          -4.843e-01
          -4.817e-01
          -4.803e-01
          -4.783e-01
          -4.758e-01
          -4.723e-01
          -4.700e-01
          -4.756e-01
          -4.736e-01
          -4.790e-01
          -4.804e-01
          -4.817e-01
          -4.828e-01
          -4.852e-01
          -4.845e-01
          -4.828e-01
          -4.838e-01
          -4.816e-01
          -4.787e-01
          -4.769e-01
          -4.711e-01
          -4.747e-01
          -4.717e-01
          -4.770e-01
          -4.738e-01
          -4.784e-01
          -4.797e-01
          -4.806e-01
          -4.832e-01
          -4.826e-01
          -4.839e-01
          -4.845e-01
          -4.840e-01
          -4.831e-01
          -4.818e-01
          -4.810e-01
          -4.786e-01
          -4.755e-01
          -4.753e-01
          -4.729e-01
          -4.722e-01
          -4.763e-01
          -4.749e-01
          -4.776e-01
          -4.805e-01
          -4.796e-01
          -4.815e-01
          -4.818e-01
          -4.818e-01
          -4.812e-01
          -4.802e-01
          -4.788e-01
          -4.794e-01
          -4.780e-01
          -4.755e-01
          -4.719e-01
          -4.724e-01
          -4.724e-01
          -4.749e-01
          -4.737e-01
          -4.777e-01
          -4.764e-01
          -4.782e-01
          -4.791e-01
          -4.791e-01
          -4.788e-01
          -4.781e-01
          -4.769e-01
          -4.758e-01
          -4.754e-01
          -4.716e-01
          -4.724e-01
          -4.712e-01
          -4.739e-01
          -4.747e-01
          -4.725e-01
          -4.758e-01
          -4.761e-01
          -4.760e-01
          -4.755e-01
          -4.746e-01
          -4.736e-01
          -4.710e-01
          -4.723e-01
          -4.704e-01
          -4.723e-01
          -4.725e-01
          -4.727e-01
          -4.725e-01
          -4.719e-01
          -4.608e-01
          -4.590e-01
          -4.560e-01
          -4.616e-01
          -4.573e-01
          -4.643e-01
          -4.590e-01
          -4.626e-01
          -4.590e-01
          -4.634e-01
          -4.594e-01
          -4.637e-01
          -4.597e-01
          -4.632e-01
          -4.585e-01
          -4.628e-01
          -4.584e-01
          -4.627e-01
          -4.588e-01
          -4.609e-01
          -4.562e-01
          -4.558e-01
          -4.607e-01
          -4.587e-01
          -4.556e-01
          -4.623e-01
          -4.570e-01
          -4.638e-01
          -4.654e-01
          -4.680e-01
          -4.668e-01
          -4.674e-01
          -4.674e-01
          -4.671e-01
          -4.667e-01
          -4.656e-01
          -4.643e-01
          -4.596e-01
          -4.627e-01
          -4.608e-01
          -4.577e-01
          -4.556e-01
          -4.617e-01
          -4.569e-01
          -4.569e-01
          -4.636e-01
          -4.654e-01
          -4.669e-01
          -4.679e-01
          -4.698e-01
          -4.698e-01
          -4.686e-01
          -4.672e-01
          -4.655e-01
          -4.637e-01
          -4.588e-01
          -4.619e-01
          -4.569e-01
          -4.623e-01
          -4.576e-01
          -4.611e-01
          -4.653e-01
          -4.664e-01
          -4.682e-01
          -4.700e-01
          -4.696e-01
          -4.677e-01
          -4.656e-01
          -4.603e-01
          -4.633e-01
          -4.580e-01
          -4.612e-01
          -4.567e-01
          -4.583e-01
          -4.632e-01
          -4.673e-01
          -4.695e-01
          -4.701e-01
          -4.680e-01
          -4.656e-01
          -4.607e-01
          -4.629e-01
          -4.576e-01
          -4.610e-01
          -4.557e-01
          -4.585e-01
          -4.636e-01
          -4.661e-01
          -4.699e-01
          -4.703e-01
          -4.677e-01
          -4.649e-01
          -4.599e-01
          -4.621e-01
          -4.571e-01
          -4.633e-01
          -4.582e-01
          -4.656e-01
          -4.679e-01
          -4.693e-01
          -4.661e-01
          -4.636e-01
          -4.599e-01
          -4.609e-01
          -4.558e-01
          -4.599e-01
          -4.644e-01
          -4.678e-01
          -4.696e-01
          -4.682e-01
          -4.662e-01
          -4.586e-01
          -4.618e-01
          -4.569e-01
          -4.619e-01
          -4.573e-01
          -4.655e-01
          -4.684e-01
          -4.707e-01
          -4.685e-01
          -4.642e-01
          -4.593e-01
          -4.628e-01
          -4.582e-01
          -4.664e-01
          -4.699e-01
          -4.665e-01
          -4.619e-01
          -4.567e-01
          -4.594e-01
          -4.538e-01
          -4.634e-01
          -4.590e-01
          -4.670e-01
          -4.685e-01
          -4.642e-01
          -4.612e-01
          -4.568e-01
          -4.639e-01
          -4.596e-01
          -4.676e-01
          -4.691e-01
          -4.654e-01
          -4.614e-01
          -4.569e-01
          -4.640e-01
          -4.599e-01
          -4.678e-01
          -4.691e-01
          -4.654e-01
          -4.613e-01
          -4.570e-01
          -4.636e-01
          -4.597e-01
          -4.675e-01
          -4.687e-01
          -4.652e-01
          -4.609e-01
          -4.568e-01
          -4.627e-01
          -4.590e-01
          -4.668e-01
          -4.698e-01
          -4.680e-01
          -4.647e-01
          -4.603e-01
          -4.564e-01
          -4.615e-01
          -4.579e-01
          -4.655e-01
          -4.687e-01
          -4.697e-01
          -4.669e-01
          -4.638e-01
          -4.558e-01
          -4.594e-01
          -4.607e-01
          -4.568e-01
          -4.643e-01
          -4.673e-01
          -4.682e-01
          -4.655e-01
          -4.627e-01
          -4.580e-01
          -4.556e-01
          -4.627e-01
          -4.594e-01
          -4.656e-01
          -4.685e-01
          -4.693e-01
          -4.667e-01
          -4.635e-01
          -4.612e-01
          -4.559e-01
          -4.610e-01
          -4.577e-01
          -4.640e-01
          -4.671e-01
          -4.698e-01
          -4.689e-01
          -4.654e-01
          -4.626e-01
          -4.590e-01
          -4.586e-01
          -4.559e-01
          -4.623e-01
          -4.592e-01
          -4.651e-01
          -4.678e-01
          -4.702e-01
          -4.694e-01
          -4.672e-01
          -4.641e-01
          -4.582e-01
          -4.610e-01
          -4.572e-01
          -4.630e-01
          -4.602e-01
          -4.655e-01
          -4.679e-01
          -4.698e-01
          -4.688e-01
          -4.686e-01
          -4.656e-01
          -4.629e-01
          -4.600e-01
          -4.575e-01
          -4.578e-01
          -4.629e-01
          -4.604e-01
          -4.651e-01
          -4.667e-01
          -4.676e-01
          -4.703e-01
          -4.697e-01
          -4.685e-01
          -4.670e-01
          -4.647e-01
          -4.639e-01
          -4.610e-01
          -4.549e-01
          -4.577e-01
          -4.575e-01
          -4.624e-01
          -4.600e-01
          -4.633e-01
          -4.658e-01
          -4.684e-01
          -4.665e-01
          -4.686e-01
          -4.692e-01
          -4.692e-01
          -4.687e-01
          -4.680e-01
          -4.669e-01
          -4.655e-01
          -4.640e-01
          -4.625e-01
          -4.594e-01
          -4.599e-01
          -4.558e-01
          -4.572e-01
          -4.595e-01
          -4.615e-01
          -4.583e-01
          -4.640e-01
          -4.619e-01
          -4.642e-01
          -4.655e-01
          -4.655e-01
          -4.652e-01
          -4.647e-01
          -4.637e-01
          -4.625e-01
          -4.610e-01
          -4.579e-01
          -4.592e-01
          -4.566e-01
          -4.591e-01
          -4.595e-01
          -4.566e-01
          -4.613e-01
          -4.616e-01
          -4.614e-01
          -4.610e-01
          -4.603e-01
          -4.593e-01
          -4.557e-01
          -4.579e-01
          -4.561e-01
          -4.540e-01
          -4.570e-01
          -4.571e-01
          -4.572e-01
          -4.569e-01
          -4.564e-01
          -4.455e-01
          -4.444e-01
          -4.396e-01
          -4.461e-01
          -4.407e-01
          -4.457e-01
          -4.409e-01
          -4.469e-01
          -4.413e-01
          -4.418e-01
          -4.455e-01
          -4.425e-01
          -4.395e-01
          -4.477e-01
          -4.421e-01
          -4.497e-01
          -4.443e-01
          -4.502e-01
          -4.459e-01
          -4.501e-01
          -4.506e-01
          -4.506e-01
          -4.524e-01
          -4.449e-01
          -4.488e-01
          -4.498e-01
          -4.444e-01
          -4.486e-01
          -4.430e-01
          -4.465e-01
          -4.408e-01
          -4.443e-01
          -4.463e-01
          -4.418e-01
          -4.404e-01
          -4.513e-01
          -4.451e-01
          -4.485e-01
          -4.510e-01
          -4.528e-01
          -4.543e-01
          -4.549e-01
          -4.548e-01
          -4.551e-01
          -4.555e-01
          -4.541e-01
          -4.539e-01
          -4.517e-01
          -4.503e-01
          -4.440e-01
          -4.490e-01
          -4.469e-01
          -4.412e-01
          -4.438e-01
          -4.485e-01
          -4.440e-01
          -4.427e-01
          -4.474e-01
          -4.510e-01
          -4.539e-01
          -4.543e-01
          -4.523e-01
          -4.500e-01
          -4.430e-01
          -4.482e-01
          -4.459e-01
          -4.479e-01
          -4.438e-01
          -4.417e-01
          -4.524e-01
          -4.531e-01
          -4.537e-01
          -4.515e-01
          -4.435e-01
          -4.494e-01
          -4.465e-01
          -4.492e-01
          -4.398e-01
          -4.447e-01
          -4.489e-01
          -4.529e-01
          -4.549e-01
          -4.524e-01
          -4.434e-01
          -4.494e-01
          -4.458e-01
          -4.489e-01
          -4.433e-01
          -4.442e-01
          -4.533e-01
          -4.536e-01
          -4.553e-01
          -4.524e-01
          -4.405e-01
          -4.495e-01
          -4.445e-01
          -4.457e-01
          -4.396e-01
          -4.417e-01
          -4.477e-01
          -4.531e-01
          -4.543e-01
          -4.490e-01
          -4.432e-01
          -4.469e-01
          -4.412e-01
          -4.485e-01
          -4.434e-01
          -4.510e-01
          -4.523e-01
          -4.501e-01
          -4.446e-01
          -4.466e-01
          -4.406e-01
          -4.439e-01
          -4.502e-01
          -4.537e-01
          -4.552e-01
          -4.535e-01
          -4.412e-01
          -4.477e-01
          -4.434e-01
          -4.490e-01
          -4.428e-01
          -4.525e-01
          -4.523e-01
          -4.487e-01
          -4.442e-01
          -4.500e-01
          -4.450e-01
          -4.539e-01
          -4.537e-01
          -4.485e-01
          -4.425e-01
          -4.465e-01
          -4.402e-01
          -4.492e-01
          -4.443e-01
          -4.543e-01
          -4.516e-01
          -4.486e-01
          -4.432e-01
          -4.457e-01
          -4.402e-01
          -4.448e-01
          -4.505e-01
          -4.552e-01
          -4.523e-01
          -4.477e-01
          -4.431e-01
          -4.459e-01
          -4.406e-01
          -4.508e-01
          -4.555e-01
          -4.523e-01
          -4.476e-01
          -4.428e-01
          -4.461e-01
          -4.409e-01
          -4.509e-01
          -4.555e-01
          -4.523e-01
          -4.474e-01
          -4.427e-01
          -4.461e-01
          -4.411e-01
          -4.509e-01
          -4.552e-01
          -4.521e-01
          -4.472e-01
          -4.424e-01
          -4.411e-01
          -4.505e-01
          -4.457e-01
          -4.543e-01
          -4.517e-01
          -4.468e-01
          -4.422e-01
          -4.496e-01
          -4.446e-01
          -4.532e-01
          -4.547e-01
          -4.510e-01
          -4.462e-01
          -4.418e-01
          -4.483e-01
          -4.430e-01
          -4.518e-01
          -4.531e-01
          -4.499e-01
          -4.412e-01
          -4.449e-01
          -4.464e-01
          -4.407e-01
          -4.501e-01
          -4.542e-01
          -4.511e-01
          -4.482e-01
          -4.429e-01
          -4.441e-01
          -4.491e-01
          -4.444e-01
          -4.524e-01
          -4.541e-01
          -4.490e-01
          -4.460e-01
          -4.397e-01
          -4.469e-01
          -4.407e-01
          -4.506e-01
          -4.540e-01
          -4.553e-01
          -4.535e-01
          -4.483e-01
          -4.426e-01
          -4.445e-01
          -4.419e-01
          -4.485e-01
          -4.453e-01
          -4.518e-01
          -4.549e-01
          -4.527e-01